V -t * -v 1.0a5 -a 0
A -t * -n 1 -p 0 -o 0x7fffffff -c 30 -a 1
A -t * -h 1 -m 1073741823 -s 0
n -t * -a 0 -s 0 -S UP -v circle -c black -i black
n -t * -a 1 -s 1 -S UP -v circle -c black -i black
n -t * -a 2 -s 2 -S UP -v circle -c black -i black
n -t * -a 3 -s 3 -S UP -v circle -c black -i black
l -t * -s 0 -d 2 -S UP -r 20000000 -D 0.01 -c black
l -t * -s 1 -d 2 -S UP -r 50000000 -D 0.0050000000000000001 -c black
l -t * -s 2 -d 3 -S UP -r 10000000 -D 1 -c black
+ -t 0.1 -s 0 -d 2 -p cbr -e 1000 -c 0 -i 0 -a 0 -x {0.0 3.0 0 ------- null}
- -t 0.1 -s 0 -d 2 -p cbr -e 1000 -c 0 -i 0 -a 0 -x {0.0 3.0 0 ------- null}
h -t 0.1 -s 0 -d 2 -p cbr -e 1000 -c 0 -i 0 -a 0 -x {0.0 3.0 -1 ------- null}
+ -t 0.1 -s 0 -d 2 -p cbr -e 1000 -c 0 -i 1 -a 0 -x {0.0 3.0 1 ------- null}
+ -t 0.1 -s 0 -d 2 -p cbr -e 1000 -c 0 -i 2 -a 0 -x {0.0 3.0 2 ------- null}
+ -t 0.1 -s 0 -d 2 -p cbr -e 1000 -c 0 -i 3 -a 0 -x {0.0 3.0 3 ------- null}
+ -t 0.1 -s 0 -d 2 -p cbr -e 1000 -c 0 -i 4 -a 0 -x {0.0 3.0 4 ------- null}
d -t 0.1 -s 0 -d 2 -p cbr -e 1000 -c 0 -i 4 -a 0 -x {0.0 3.0 4 ------- null}
- -t 0.1004 -s 0 -d 2 -p cbr -e 1000 -c 0 -i 1 -a 0 -x {0.0 3.0 1 ------- null}
h -t 0.1004 -s 0 -d 2 -p cbr -e 1000 -c 0 -i 1 -a 0 -x {0.0 3.0 -1 ------- null}
- -t 0.1008 -s 0 -d 2 -p cbr -e 1000 -c 0 -i 2 -a 0 -x {0.0 3.0 2 ------- null}
h -t 0.1008 -s 0 -d 2 -p cbr -e 1000 -c 0 -i 2 -a 0 -x {0.0 3.0 -1 ------- null}
- -t 0.1012 -s 0 -d 2 -p cbr -e 1000 -c 0 -i 3 -a 0 -x {0.0 3.0 3 ------- null}
h -t 0.1012 -s 0 -d 2 -p cbr -e 1000 -c 0 -i 3 -a 0 -x {0.0 3.0 -1 ------- null}
r -t 0.1104 -s 0 -d 2 -p cbr -e 1000 -c 0 -i 0 -a 0 -x {0.0 3.0 0 ------- null}
+ -t 0.1104 -s 2 -d 3 -p cbr -e 1000 -c 0 -i 0 -a 0 -x {0.0 3.0 0 ------- null}
- -t 0.1104 -s 2 -d 3 -p cbr -e 1000 -c 0 -i 0 -a 0 -x {0.0 3.0 0 ------- null}
h -t 0.1104 -s 2 -d 3 -p cbr -e 1000 -c 0 -i 0 -a 0 -x {0.0 3.0 -1 ------- null}
r -t 0.1108 -s 0 -d 2 -p cbr -e 1000 -c 0 -i 1 -a 0 -x {0.0 3.0 1 ------- null}
+ -t 0.1108 -s 2 -d 3 -p cbr -e 1000 -c 0 -i 1 -a 0 -x {0.0 3.0 1 ------- null}
r -t 0.1112 -s 0 -d 2 -p cbr -e 1000 -c 0 -i 2 -a 0 -x {0.0 3.0 2 ------- null}
+ -t 0.1112 -s 2 -d 3 -p cbr -e 1000 -c 0 -i 2 -a 0 -x {0.0 3.0 2 ------- null}
- -t 0.1112 -s 2 -d 3 -p cbr -e 1000 -c 0 -i 1 -a 0 -x {0.0 3.0 1 ------- null}
h -t 0.1112 -s 2 -d 3 -p cbr -e 1000 -c 0 -i 1 -a 0 -x {0.0 3.0 -1 ------- null}
r -t 0.1116 -s 0 -d 2 -p cbr -e 1000 -c 0 -i 3 -a 0 -x {0.0 3.0 3 ------- null}
+ -t 0.1116 -s 2 -d 3 -p cbr -e 1000 -c 0 -i 3 -a 0 -x {0.0 3.0 3 ------- null}
- -t 0.112 -s 2 -d 3 -p cbr -e 1000 -c 0 -i 2 -a 0 -x {0.0 3.0 2 ------- null}
h -t 0.112 -s 2 -d 3 -p cbr -e 1000 -c 0 -i 2 -a 0 -x {0.0 3.0 -1 ------- null}
- -t 0.1128 -s 2 -d 3 -p cbr -e 1000 -c 0 -i 3 -a 0 -x {0.0 3.0 3 ------- null}
h -t 0.1128 -s 2 -d 3 -p cbr -e 1000 -c 0 -i 3 -a 0 -x {0.0 3.0 -1 ------- null}
+ -t 0.2 -s 1 -d 2 -p cbr -e 210 -c 0 -i 5 -a 0 -x {1.0 3.0 0 ------- null}
- -t 0.2 -s 1 -d 2 -p cbr -e 210 -c 0 -i 5 -a 0 -x {1.0 3.0 0 ------- null}
h -t 0.2 -s 1 -d 2 -p cbr -e 210 -c 0 -i 5 -a 0 -x {1.0 3.0 -1 ------- null}
+ -t 0.20375 -s 1 -d 2 -p cbr -e 210 -c 0 -i 6 -a 0 -x {1.0 3.0 1 ------- null}
- -t 0.20375 -s 1 -d 2 -p cbr -e 210 -c 0 -i 6 -a 0 -x {1.0 3.0 1 ------- null}
h -t 0.20375 -s 1 -d 2 -p cbr -e 210 -c 0 -i 6 -a 0 -x {1.0 3.0 -1 ------- null}
r -t 0.2050336 -s 1 -d 2 -p cbr -e 210 -c 0 -i 5 -a 0 -x {1.0 3.0 0 ------- null}
+ -t 0.2050336 -s 2 -d 3 -p cbr -e 210 -c 0 -i 5 -a 0 -x {1.0 3.0 0 ------- null}
- -t 0.2050336 -s 2 -d 3 -p cbr -e 210 -c 0 -i 5 -a 0 -x {1.0 3.0 0 ------- null}
h -t 0.2050336 -s 2 -d 3 -p cbr -e 210 -c 0 -i 5 -a 0 -x {1.0 3.0 -1 ------- null}
+ -t 0.2075 -s 1 -d 2 -p cbr -e 210 -c 0 -i 7 -a 0 -x {1.0 3.0 2 ------- null}
- -t 0.2075 -s 1 -d 2 -p cbr -e 210 -c 0 -i 7 -a 0 -x {1.0 3.0 2 ------- null}
h -t 0.2075 -s 1 -d 2 -p cbr -e 210 -c 0 -i 7 -a 0 -x {1.0 3.0 -1 ------- null}
r -t 0.2087836 -s 1 -d 2 -p cbr -e 210 -c 0 -i 6 -a 0 -x {1.0 3.0 1 ------- null}
+ -t 0.2087836 -s 2 -d 3 -p cbr -e 210 -c 0 -i 6 -a 0 -x {1.0 3.0 1 ------- null}
- -t 0.2087836 -s 2 -d 3 -p cbr -e 210 -c 0 -i 6 -a 0 -x {1.0 3.0 1 ------- null}
h -t 0.2087836 -s 2 -d 3 -p cbr -e 210 -c 0 -i 6 -a 0 -x {1.0 3.0 -1 ------- null}
+ -t 0.21125 -s 1 -d 2 -p cbr -e 210 -c 0 -i 8 -a 0 -x {1.0 3.0 3 ------- null}
- -t 0.21125 -s 1 -d 2 -p cbr -e 210 -c 0 -i 8 -a 0 -x {1.0 3.0 3 ------- null}
h -t 0.21125 -s 1 -d 2 -p cbr -e 210 -c 0 -i 8 -a 0 -x {1.0 3.0 -1 ------- null}
r -t 0.2125336 -s 1 -d 2 -p cbr -e 210 -c 0 -i 7 -a 0 -x {1.0 3.0 2 ------- null}
+ -t 0.2125336 -s 2 -d 3 -p cbr -e 210 -c 0 -i 7 -a 0 -x {1.0 3.0 2 ------- null}
- -t 0.2125336 -s 2 -d 3 -p cbr -e 210 -c 0 -i 7 -a 0 -x {1.0 3.0 2 ------- null}
h -t 0.2125336 -s 2 -d 3 -p cbr -e 210 -c 0 -i 7 -a 0 -x {1.0 3.0 -1 ------- null}
+ -t 0.215 -s 1 -d 2 -p cbr -e 210 -c 0 -i 9 -a 0 -x {1.0 3.0 4 ------- null}
- -t 0.215 -s 1 -d 2 -p cbr -e 210 -c 0 -i 9 -a 0 -x {1.0 3.0 4 ------- null}
h -t 0.215 -s 1 -d 2 -p cbr -e 210 -c 0 -i 9 -a 0 -x {1.0 3.0 -1 ------- null}
r -t 0.2162836 -s 1 -d 2 -p cbr -e 210 -c 0 -i 8 -a 0 -x {1.0 3.0 3 ------- null}
+ -t 0.2162836 -s 2 -d 3 -p cbr -e 210 -c 0 -i 8 -a 0 -x {1.0 3.0 3 ------- null}
- -t 0.2162836 -s 2 -d 3 -p cbr -e 210 -c 0 -i 8 -a 0 -x {1.0 3.0 3 ------- null}
h -t 0.2162836 -s 2 -d 3 -p cbr -e 210 -c 0 -i 8 -a 0 -x {1.0 3.0 -1 ------- null}
+ -t 0.21875 -s 1 -d 2 -p cbr -e 210 -c 0 -i 10 -a 0 -x {1.0 3.0 5 ------- null}
- -t 0.21875 -s 1 -d 2 -p cbr -e 210 -c 0 -i 10 -a 0 -x {1.0 3.0 5 ------- null}
h -t 0.21875 -s 1 -d 2 -p cbr -e 210 -c 0 -i 10 -a 0 -x {1.0 3.0 -1 ------- null}
r -t 0.2200336 -s 1 -d 2 -p cbr -e 210 -c 0 -i 9 -a 0 -x {1.0 3.0 4 ------- null}
+ -t 0.2200336 -s 2 -d 3 -p cbr -e 210 -c 0 -i 9 -a 0 -x {1.0 3.0 4 ------- null}
- -t 0.2200336 -s 2 -d 3 -p cbr -e 210 -c 0 -i 9 -a 0 -x {1.0 3.0 4 ------- null}
h -t 0.2200336 -s 2 -d 3 -p cbr -e 210 -c 0 -i 9 -a 0 -x {1.0 3.0 -1 ------- null}
+ -t 0.2225 -s 1 -d 2 -p cbr -e 210 -c 0 -i 11 -a 0 -x {1.0 3.0 6 ------- null}
- -t 0.2225 -s 1 -d 2 -p cbr -e 210 -c 0 -i 11 -a 0 -x {1.0 3.0 6 ------- null}
h -t 0.2225 -s 1 -d 2 -p cbr -e 210 -c 0 -i 11 -a 0 -x {1.0 3.0 -1 ------- null}
r -t 0.2237836 -s 1 -d 2 -p cbr -e 210 -c 0 -i 10 -a 0 -x {1.0 3.0 5 ------- null}
+ -t 0.2237836 -s 2 -d 3 -p cbr -e 210 -c 0 -i 10 -a 0 -x {1.0 3.0 5 ------- null}
- -t 0.2237836 -s 2 -d 3 -p cbr -e 210 -c 0 -i 10 -a 0 -x {1.0 3.0 5 ------- null}
h -t 0.2237836 -s 2 -d 3 -p cbr -e 210 -c 0 -i 10 -a 0 -x {1.0 3.0 -1 ------- null}
+ -t 0.22625 -s 1 -d 2 -p cbr -e 210 -c 0 -i 12 -a 0 -x {1.0 3.0 7 ------- null}
- -t 0.22625 -s 1 -d 2 -p cbr -e 210 -c 0 -i 12 -a 0 -x {1.0 3.0 7 ------- null}
h -t 0.22625 -s 1 -d 2 -p cbr -e 210 -c 0 -i 12 -a 0 -x {1.0 3.0 -1 ------- null}
r -t 0.2275336 -s 1 -d 2 -p cbr -e 210 -c 0 -i 11 -a 0 -x {1.0 3.0 6 ------- null}
+ -t 0.2275336 -s 2 -d 3 -p cbr -e 210 -c 0 -i 11 -a 0 -x {1.0 3.0 6 ------- null}
- -t 0.2275336 -s 2 -d 3 -p cbr -e 210 -c 0 -i 11 -a 0 -x {1.0 3.0 6 ------- null}
h -t 0.2275336 -s 2 -d 3 -p cbr -e 210 -c 0 -i 11 -a 0 -x {1.0 3.0 -1 ------- null}
+ -t 0.23 -s 1 -d 2 -p cbr -e 210 -c 0 -i 13 -a 0 -x {1.0 3.0 8 ------- null}
- -t 0.23 -s 1 -d 2 -p cbr -e 210 -c 0 -i 13 -a 0 -x {1.0 3.0 8 ------- null}
h -t 0.23 -s 1 -d 2 -p cbr -e 210 -c 0 -i 13 -a 0 -x {1.0 3.0 -1 ------- null}
r -t 0.2312836 -s 1 -d 2 -p cbr -e 210 -c 0 -i 12 -a 0 -x {1.0 3.0 7 ------- null}
+ -t 0.2312836 -s 2 -d 3 -p cbr -e 210 -c 0 -i 12 -a 0 -x {1.0 3.0 7 ------- null}
- -t 0.2312836 -s 2 -d 3 -p cbr -e 210 -c 0 -i 12 -a 0 -x {1.0 3.0 7 ------- null}
h -t 0.2312836 -s 2 -d 3 -p cbr -e 210 -c 0 -i 12 -a 0 -x {1.0 3.0 -1 ------- null}
+ -t 0.23375 -s 1 -d 2 -p cbr -e 210 -c 0 -i 14 -a 0 -x {1.0 3.0 9 ------- null}
- -t 0.23375 -s 1 -d 2 -p cbr -e 210 -c 0 -i 14 -a 0 -x {1.0 3.0 9 ------- null}
h -t 0.23375 -s 1 -d 2 -p cbr -e 210 -c 0 -i 14 -a 0 -x {1.0 3.0 -1 ------- null}
r -t 0.2350336 -s 1 -d 2 -p cbr -e 210 -c 0 -i 13 -a 0 -x {1.0 3.0 8 ------- null}
+ -t 0.2350336 -s 2 -d 3 -p cbr -e 210 -c 0 -i 13 -a 0 -x {1.0 3.0 8 ------- null}
- -t 0.2350336 -s 2 -d 3 -p cbr -e 210 -c 0 -i 13 -a 0 -x {1.0 3.0 8 ------- null}
h -t 0.2350336 -s 2 -d 3 -p cbr -e 210 -c 0 -i 13 -a 0 -x {1.0 3.0 -1 ------- null}
+ -t 0.2375 -s 1 -d 2 -p cbr -e 210 -c 0 -i 15 -a 0 -x {1.0 3.0 10 ------- null}
- -t 0.2375 -s 1 -d 2 -p cbr -e 210 -c 0 -i 15 -a 0 -x {1.0 3.0 10 ------- null}
h -t 0.2375 -s 1 -d 2 -p cbr -e 210 -c 0 -i 15 -a 0 -x {1.0 3.0 -1 ------- null}
r -t 0.2387836 -s 1 -d 2 -p cbr -e 210 -c 0 -i 14 -a 0 -x {1.0 3.0 9 ------- null}
+ -t 0.2387836 -s 2 -d 3 -p cbr -e 210 -c 0 -i 14 -a 0 -x {1.0 3.0 9 ------- null}
- -t 0.2387836 -s 2 -d 3 -p cbr -e 210 -c 0 -i 14 -a 0 -x {1.0 3.0 9 ------- null}
h -t 0.2387836 -s 2 -d 3 -p cbr -e 210 -c 0 -i 14 -a 0 -x {1.0 3.0 -1 ------- null}
+ -t 0.24125 -s 1 -d 2 -p cbr -e 210 -c 0 -i 16 -a 0 -x {1.0 3.0 11 ------- null}
- -t 0.24125 -s 1 -d 2 -p cbr -e 210 -c 0 -i 16 -a 0 -x {1.0 3.0 11 ------- null}
h -t 0.24125 -s 1 -d 2 -p cbr -e 210 -c 0 -i 16 -a 0 -x {1.0 3.0 -1 ------- null}
r -t 0.2425336 -s 1 -d 2 -p cbr -e 210 -c 0 -i 15 -a 0 -x {1.0 3.0 10 ------- null}
+ -t 0.2425336 -s 2 -d 3 -p cbr -e 210 -c 0 -i 15 -a 0 -x {1.0 3.0 10 ------- null}
- -t 0.2425336 -s 2 -d 3 -p cbr -e 210 -c 0 -i 15 -a 0 -x {1.0 3.0 10 ------- null}
h -t 0.2425336 -s 2 -d 3 -p cbr -e 210 -c 0 -i 15 -a 0 -x {1.0 3.0 -1 ------- null}
+ -t 0.245 -s 1 -d 2 -p cbr -e 210 -c 0 -i 17 -a 0 -x {1.0 3.0 12 ------- null}
- -t 0.245 -s 1 -d 2 -p cbr -e 210 -c 0 -i 17 -a 0 -x {1.0 3.0 12 ------- null}
h -t 0.245 -s 1 -d 2 -p cbr -e 210 -c 0 -i 17 -a 0 -x {1.0 3.0 -1 ------- null}
r -t 0.2462836 -s 1 -d 2 -p cbr -e 210 -c 0 -i 16 -a 0 -x {1.0 3.0 11 ------- null}
+ -t 0.2462836 -s 2 -d 3 -p cbr -e 210 -c 0 -i 16 -a 0 -x {1.0 3.0 11 ------- null}
- -t 0.2462836 -s 2 -d 3 -p cbr -e 210 -c 0 -i 16 -a 0 -x {1.0 3.0 11 ------- null}
h -t 0.2462836 -s 2 -d 3 -p cbr -e 210 -c 0 -i 16 -a 0 -x {1.0 3.0 -1 ------- null}
+ -t 0.24875 -s 1 -d 2 -p cbr -e 210 -c 0 -i 18 -a 0 -x {1.0 3.0 13 ------- null}
- -t 0.24875 -s 1 -d 2 -p cbr -e 210 -c 0 -i 18 -a 0 -x {1.0 3.0 13 ------- null}
h -t 0.24875 -s 1 -d 2 -p cbr -e 210 -c 0 -i 18 -a 0 -x {1.0 3.0 -1 ------- null}
r -t 0.2500336 -s 1 -d 2 -p cbr -e 210 -c 0 -i 17 -a 0 -x {1.0 3.0 12 ------- null}
+ -t 0.2500336 -s 2 -d 3 -p cbr -e 210 -c 0 -i 17 -a 0 -x {1.0 3.0 12 ------- null}
- -t 0.2500336 -s 2 -d 3 -p cbr -e 210 -c 0 -i 17 -a 0 -x {1.0 3.0 12 ------- null}
h -t 0.2500336 -s 2 -d 3 -p cbr -e 210 -c 0 -i 17 -a 0 -x {1.0 3.0 -1 ------- null}
+ -t 0.2525 -s 1 -d 2 -p cbr -e 210 -c 0 -i 19 -a 0 -x {1.0 3.0 14 ------- null}
- -t 0.2525 -s 1 -d 2 -p cbr -e 210 -c 0 -i 19 -a 0 -x {1.0 3.0 14 ------- null}
h -t 0.2525 -s 1 -d 2 -p cbr -e 210 -c 0 -i 19 -a 0 -x {1.0 3.0 -1 ------- null}
r -t 0.2537836 -s 1 -d 2 -p cbr -e 210 -c 0 -i 18 -a 0 -x {1.0 3.0 13 ------- null}
+ -t 0.2537836 -s 2 -d 3 -p cbr -e 210 -c 0 -i 18 -a 0 -x {1.0 3.0 13 ------- null}
- -t 0.2537836 -s 2 -d 3 -p cbr -e 210 -c 0 -i 18 -a 0 -x {1.0 3.0 13 ------- null}
h -t 0.2537836 -s 2 -d 3 -p cbr -e 210 -c 0 -i 18 -a 0 -x {1.0 3.0 -1 ------- null}
+ -t 0.25625 -s 1 -d 2 -p cbr -e 210 -c 0 -i 20 -a 0 -x {1.0 3.0 15 ------- null}
- -t 0.25625 -s 1 -d 2 -p cbr -e 210 -c 0 -i 20 -a 0 -x {1.0 3.0 15 ------- null}
h -t 0.25625 -s 1 -d 2 -p cbr -e 210 -c 0 -i 20 -a 0 -x {1.0 3.0 -1 ------- null}
r -t 0.2575336 -s 1 -d 2 -p cbr -e 210 -c 0 -i 19 -a 0 -x {1.0 3.0 14 ------- null}
+ -t 0.2575336 -s 2 -d 3 -p cbr -e 210 -c 0 -i 19 -a 0 -x {1.0 3.0 14 ------- null}
- -t 0.2575336 -s 2 -d 3 -p cbr -e 210 -c 0 -i 19 -a 0 -x {1.0 3.0 14 ------- null}
h -t 0.2575336 -s 2 -d 3 -p cbr -e 210 -c 0 -i 19 -a 0 -x {1.0 3.0 -1 ------- null}
+ -t 0.26 -s 1 -d 2 -p cbr -e 210 -c 0 -i 21 -a 0 -x {1.0 3.0 16 ------- null}
- -t 0.26 -s 1 -d 2 -p cbr -e 210 -c 0 -i 21 -a 0 -x {1.0 3.0 16 ------- null}
h -t 0.26 -s 1 -d 2 -p cbr -e 210 -c 0 -i 21 -a 0 -x {1.0 3.0 -1 ------- null}
r -t 0.2612836 -s 1 -d 2 -p cbr -e 210 -c 0 -i 20 -a 0 -x {1.0 3.0 15 ------- null}
+ -t 0.2612836 -s 2 -d 3 -p cbr -e 210 -c 0 -i 20 -a 0 -x {1.0 3.0 15 ------- null}
- -t 0.2612836 -s 2 -d 3 -p cbr -e 210 -c 0 -i 20 -a 0 -x {1.0 3.0 15 ------- null}
h -t 0.2612836 -s 2 -d 3 -p cbr -e 210 -c 0 -i 20 -a 0 -x {1.0 3.0 -1 ------- null}
+ -t 0.26375 -s 1 -d 2 -p cbr -e 210 -c 0 -i 22 -a 0 -x {1.0 3.0 17 ------- null}
- -t 0.26375 -s 1 -d 2 -p cbr -e 210 -c 0 -i 22 -a 0 -x {1.0 3.0 17 ------- null}
h -t 0.26375 -s 1 -d 2 -p cbr -e 210 -c 0 -i 22 -a 0 -x {1.0 3.0 -1 ------- null}
r -t 0.2650336 -s 1 -d 2 -p cbr -e 210 -c 0 -i 21 -a 0 -x {1.0 3.0 16 ------- null}
+ -t 0.2650336 -s 2 -d 3 -p cbr -e 210 -c 0 -i 21 -a 0 -x {1.0 3.0 16 ------- null}
- -t 0.2650336 -s 2 -d 3 -p cbr -e 210 -c 0 -i 21 -a 0 -x {1.0 3.0 16 ------- null}
h -t 0.2650336 -s 2 -d 3 -p cbr -e 210 -c 0 -i 21 -a 0 -x {1.0 3.0 -1 ------- null}
+ -t 0.2675 -s 1 -d 2 -p cbr -e 210 -c 0 -i 23 -a 0 -x {1.0 3.0 18 ------- null}
- -t 0.2675 -s 1 -d 2 -p cbr -e 210 -c 0 -i 23 -a 0 -x {1.0 3.0 18 ------- null}
h -t 0.2675 -s 1 -d 2 -p cbr -e 210 -c 0 -i 23 -a 0 -x {1.0 3.0 -1 ------- null}
r -t 0.2687836 -s 1 -d 2 -p cbr -e 210 -c 0 -i 22 -a 0 -x {1.0 3.0 17 ------- null}
+ -t 0.2687836 -s 2 -d 3 -p cbr -e 210 -c 0 -i 22 -a 0 -x {1.0 3.0 17 ------- null}
- -t 0.2687836 -s 2 -d 3 -p cbr -e 210 -c 0 -i 22 -a 0 -x {1.0 3.0 17 ------- null}
h -t 0.2687836 -s 2 -d 3 -p cbr -e 210 -c 0 -i 22 -a 0 -x {1.0 3.0 -1 ------- null}
+ -t 0.27125 -s 1 -d 2 -p cbr -e 210 -c 0 -i 24 -a 0 -x {1.0 3.0 19 ------- null}
- -t 0.27125 -s 1 -d 2 -p cbr -e 210 -c 0 -i 24 -a 0 -x {1.0 3.0 19 ------- null}
h -t 0.27125 -s 1 -d 2 -p cbr -e 210 -c 0 -i 24 -a 0 -x {1.0 3.0 -1 ------- null}
r -t 0.2725336 -s 1 -d 2 -p cbr -e 210 -c 0 -i 23 -a 0 -x {1.0 3.0 18 ------- null}
+ -t 0.2725336 -s 2 -d 3 -p cbr -e 210 -c 0 -i 23 -a 0 -x {1.0 3.0 18 ------- null}
- -t 0.2725336 -s 2 -d 3 -p cbr -e 210 -c 0 -i 23 -a 0 -x {1.0 3.0 18 ------- null}
h -t 0.2725336 -s 2 -d 3 -p cbr -e 210 -c 0 -i 23 -a 0 -x {1.0 3.0 -1 ------- null}
+ -t 0.275 -s 1 -d 2 -p cbr -e 210 -c 0 -i 25 -a 0 -x {1.0 3.0 20 ------- null}
- -t 0.275 -s 1 -d 2 -p cbr -e 210 -c 0 -i 25 -a 0 -x {1.0 3.0 20 ------- null}
h -t 0.275 -s 1 -d 2 -p cbr -e 210 -c 0 -i 25 -a 0 -x {1.0 3.0 -1 ------- null}
r -t 0.2762836 -s 1 -d 2 -p cbr -e 210 -c 0 -i 24 -a 0 -x {1.0 3.0 19 ------- null}
+ -t 0.2762836 -s 2 -d 3 -p cbr -e 210 -c 0 -i 24 -a 0 -x {1.0 3.0 19 ------- null}
- -t 0.2762836 -s 2 -d 3 -p cbr -e 210 -c 0 -i 24 -a 0 -x {1.0 3.0 19 ------- null}
h -t 0.2762836 -s 2 -d 3 -p cbr -e 210 -c 0 -i 24 -a 0 -x {1.0 3.0 -1 ------- null}
+ -t 0.27875 -s 1 -d 2 -p cbr -e 210 -c 0 -i 26 -a 0 -x {1.0 3.0 21 ------- null}
- -t 0.27875 -s 1 -d 2 -p cbr -e 210 -c 0 -i 26 -a 0 -x {1.0 3.0 21 ------- null}
h -t 0.27875 -s 1 -d 2 -p cbr -e 210 -c 0 -i 26 -a 0 -x {1.0 3.0 -1 ------- null}
r -t 0.2800336 -s 1 -d 2 -p cbr -e 210 -c 0 -i 25 -a 0 -x {1.0 3.0 20 ------- null}
+ -t 0.2800336 -s 2 -d 3 -p cbr -e 210 -c 0 -i 25 -a 0 -x {1.0 3.0 20 ------- null}
- -t 0.2800336 -s 2 -d 3 -p cbr -e 210 -c 0 -i 25 -a 0 -x {1.0 3.0 20 ------- null}
h -t 0.2800336 -s 2 -d 3 -p cbr -e 210 -c 0 -i 25 -a 0 -x {1.0 3.0 -1 ------- null}
+ -t 0.2825 -s 1 -d 2 -p cbr -e 210 -c 0 -i 27 -a 0 -x {1.0 3.0 22 ------- null}
- -t 0.2825 -s 1 -d 2 -p cbr -e 210 -c 0 -i 27 -a 0 -x {1.0 3.0 22 ------- null}
h -t 0.2825 -s 1 -d 2 -p cbr -e 210 -c 0 -i 27 -a 0 -x {1.0 3.0 -1 ------- null}
r -t 0.2837836 -s 1 -d 2 -p cbr -e 210 -c 0 -i 26 -a 0 -x {1.0 3.0 21 ------- null}
+ -t 0.2837836 -s 2 -d 3 -p cbr -e 210 -c 0 -i 26 -a 0 -x {1.0 3.0 21 ------- null}
- -t 0.2837836 -s 2 -d 3 -p cbr -e 210 -c 0 -i 26 -a 0 -x {1.0 3.0 21 ------- null}
h -t 0.2837836 -s 2 -d 3 -p cbr -e 210 -c 0 -i 26 -a 0 -x {1.0 3.0 -1 ------- null}
+ -t 0.28625 -s 1 -d 2 -p cbr -e 210 -c 0 -i 28 -a 0 -x {1.0 3.0 23 ------- null}
- -t 0.28625 -s 1 -d 2 -p cbr -e 210 -c 0 -i 28 -a 0 -x {1.0 3.0 23 ------- null}
h -t 0.28625 -s 1 -d 2 -p cbr -e 210 -c 0 -i 28 -a 0 -x {1.0 3.0 -1 ------- null}
r -t 0.2875336 -s 1 -d 2 -p cbr -e 210 -c 0 -i 27 -a 0 -x {1.0 3.0 22 ------- null}
+ -t 0.2875336 -s 2 -d 3 -p cbr -e 210 -c 0 -i 27 -a 0 -x {1.0 3.0 22 ------- null}
- -t 0.2875336 -s 2 -d 3 -p cbr -e 210 -c 0 -i 27 -a 0 -x {1.0 3.0 22 ------- null}
h -t 0.2875336 -s 2 -d 3 -p cbr -e 210 -c 0 -i 27 -a 0 -x {1.0 3.0 -1 ------- null}
+ -t 0.29 -s 1 -d 2 -p cbr -e 210 -c 0 -i 29 -a 0 -x {1.0 3.0 24 ------- null}
- -t 0.29 -s 1 -d 2 -p cbr -e 210 -c 0 -i 29 -a 0 -x {1.0 3.0 24 ------- null}
h -t 0.29 -s 1 -d 2 -p cbr -e 210 -c 0 -i 29 -a 0 -x {1.0 3.0 -1 ------- null}
r -t 0.2912836 -s 1 -d 2 -p cbr -e 210 -c 0 -i 28 -a 0 -x {1.0 3.0 23 ------- null}
+ -t 0.2912836 -s 2 -d 3 -p cbr -e 210 -c 0 -i 28 -a 0 -x {1.0 3.0 23 ------- null}
- -t 0.2912836 -s 2 -d 3 -p cbr -e 210 -c 0 -i 28 -a 0 -x {1.0 3.0 23 ------- null}
h -t 0.2912836 -s 2 -d 3 -p cbr -e 210 -c 0 -i 28 -a 0 -x {1.0 3.0 -1 ------- null}
+ -t 0.29375 -s 1 -d 2 -p cbr -e 210 -c 0 -i 30 -a 0 -x {1.0 3.0 25 ------- null}
- -t 0.29375 -s 1 -d 2 -p cbr -e 210 -c 0 -i 30 -a 0 -x {1.0 3.0 25 ------- null}
h -t 0.29375 -s 1 -d 2 -p cbr -e 210 -c 0 -i 30 -a 0 -x {1.0 3.0 -1 ------- null}
r -t 0.2950336 -s 1 -d 2 -p cbr -e 210 -c 0 -i 29 -a 0 -x {1.0 3.0 24 ------- null}
+ -t 0.2950336 -s 2 -d 3 -p cbr -e 210 -c 0 -i 29 -a 0 -x {1.0 3.0 24 ------- null}
- -t 0.2950336 -s 2 -d 3 -p cbr -e 210 -c 0 -i 29 -a 0 -x {1.0 3.0 24 ------- null}
h -t 0.2950336 -s 2 -d 3 -p cbr -e 210 -c 0 -i 29 -a 0 -x {1.0 3.0 -1 ------- null}
+ -t 0.2975 -s 1 -d 2 -p cbr -e 210 -c 0 -i 31 -a 0 -x {1.0 3.0 26 ------- null}
- -t 0.2975 -s 1 -d 2 -p cbr -e 210 -c 0 -i 31 -a 0 -x {1.0 3.0 26 ------- null}
h -t 0.2975 -s 1 -d 2 -p cbr -e 210 -c 0 -i 31 -a 0 -x {1.0 3.0 -1 ------- null}
r -t 0.2987836 -s 1 -d 2 -p cbr -e 210 -c 0 -i 30 -a 0 -x {1.0 3.0 25 ------- null}
+ -t 0.2987836 -s 2 -d 3 -p cbr -e 210 -c 0 -i 30 -a 0 -x {1.0 3.0 25 ------- null}
- -t 0.2987836 -s 2 -d 3 -p cbr -e 210 -c 0 -i 30 -a 0 -x {1.0 3.0 25 ------- null}
h -t 0.2987836 -s 2 -d 3 -p cbr -e 210 -c 0 -i 30 -a 0 -x {1.0 3.0 -1 ------- null}
+ -t 0.30125 -s 1 -d 2 -p cbr -e 210 -c 0 -i 32 -a 0 -x {1.0 3.0 27 ------- null}
- -t 0.30125 -s 1 -d 2 -p cbr -e 210 -c 0 -i 32 -a 0 -x {1.0 3.0 27 ------- null}
h -t 0.30125 -s 1 -d 2 -p cbr -e 210 -c 0 -i 32 -a 0 -x {1.0 3.0 -1 ------- null}
r -t 0.3025336 -s 1 -d 2 -p cbr -e 210 -c 0 -i 31 -a 0 -x {1.0 3.0 26 ------- null}
+ -t 0.3025336 -s 2 -d 3 -p cbr -e 210 -c 0 -i 31 -a 0 -x {1.0 3.0 26 ------- null}
- -t 0.3025336 -s 2 -d 3 -p cbr -e 210 -c 0 -i 31 -a 0 -x {1.0 3.0 26 ------- null}
h -t 0.3025336 -s 2 -d 3 -p cbr -e 210 -c 0 -i 31 -a 0 -x {1.0 3.0 -1 ------- null}
+ -t 0.305 -s 1 -d 2 -p cbr -e 210 -c 0 -i 33 -a 0 -x {1.0 3.0 28 ------- null}
- -t 0.305 -s 1 -d 2 -p cbr -e 210 -c 0 -i 33 -a 0 -x {1.0 3.0 28 ------- null}
h -t 0.305 -s 1 -d 2 -p cbr -e 210 -c 0 -i 33 -a 0 -x {1.0 3.0 -1 ------- null}
r -t 0.3062836 -s 1 -d 2 -p cbr -e 210 -c 0 -i 32 -a 0 -x {1.0 3.0 27 ------- null}
+ -t 0.3062836 -s 2 -d 3 -p cbr -e 210 -c 0 -i 32 -a 0 -x {1.0 3.0 27 ------- null}
- -t 0.3062836 -s 2 -d 3 -p cbr -e 210 -c 0 -i 32 -a 0 -x {1.0 3.0 27 ------- null}
h -t 0.3062836 -s 2 -d 3 -p cbr -e 210 -c 0 -i 32 -a 0 -x {1.0 3.0 -1 ------- null}
+ -t 0.30875 -s 1 -d 2 -p cbr -e 210 -c 0 -i 34 -a 0 -x {1.0 3.0 29 ------- null}
- -t 0.30875 -s 1 -d 2 -p cbr -e 210 -c 0 -i 34 -a 0 -x {1.0 3.0 29 ------- null}
h -t 0.30875 -s 1 -d 2 -p cbr -e 210 -c 0 -i 34 -a 0 -x {1.0 3.0 -1 ------- null}
r -t 0.3100336 -s 1 -d 2 -p cbr -e 210 -c 0 -i 33 -a 0 -x {1.0 3.0 28 ------- null}
+ -t 0.3100336 -s 2 -d 3 -p cbr -e 210 -c 0 -i 33 -a 0 -x {1.0 3.0 28 ------- null}
- -t 0.3100336 -s 2 -d 3 -p cbr -e 210 -c 0 -i 33 -a 0 -x {1.0 3.0 28 ------- null}
h -t 0.3100336 -s 2 -d 3 -p cbr -e 210 -c 0 -i 33 -a 0 -x {1.0 3.0 -1 ------- null}
+ -t 0.3125 -s 1 -d 2 -p cbr -e 210 -c 0 -i 35 -a 0 -x {1.0 3.0 30 ------- null}
- -t 0.3125 -s 1 -d 2 -p cbr -e 210 -c 0 -i 35 -a 0 -x {1.0 3.0 30 ------- null}
h -t 0.3125 -s 1 -d 2 -p cbr -e 210 -c 0 -i 35 -a 0 -x {1.0 3.0 -1 ------- null}
r -t 0.3137836 -s 1 -d 2 -p cbr -e 210 -c 0 -i 34 -a 0 -x {1.0 3.0 29 ------- null}
+ -t 0.3137836 -s 2 -d 3 -p cbr -e 210 -c 0 -i 34 -a 0 -x {1.0 3.0 29 ------- null}
- -t 0.3137836 -s 2 -d 3 -p cbr -e 210 -c 0 -i 34 -a 0 -x {1.0 3.0 29 ------- null}
h -t 0.3137836 -s 2 -d 3 -p cbr -e 210 -c 0 -i 34 -a 0 -x {1.0 3.0 -1 ------- null}
+ -t 0.31625 -s 1 -d 2 -p cbr -e 210 -c 0 -i 36 -a 0 -x {1.0 3.0 31 ------- null}
- -t 0.31625 -s 1 -d 2 -p cbr -e 210 -c 0 -i 36 -a 0 -x {1.0 3.0 31 ------- null}
h -t 0.31625 -s 1 -d 2 -p cbr -e 210 -c 0 -i 36 -a 0 -x {1.0 3.0 -1 ------- null}
r -t 0.3175336 -s 1 -d 2 -p cbr -e 210 -c 0 -i 35 -a 0 -x {1.0 3.0 30 ------- null}
+ -t 0.3175336 -s 2 -d 3 -p cbr -e 210 -c 0 -i 35 -a 0 -x {1.0 3.0 30 ------- null}
- -t 0.3175336 -s 2 -d 3 -p cbr -e 210 -c 0 -i 35 -a 0 -x {1.0 3.0 30 ------- null}
h -t 0.3175336 -s 2 -d 3 -p cbr -e 210 -c 0 -i 35 -a 0 -x {1.0 3.0 -1 ------- null}
+ -t 0.32 -s 1 -d 2 -p cbr -e 210 -c 0 -i 37 -a 0 -x {1.0 3.0 32 ------- null}
- -t 0.32 -s 1 -d 2 -p cbr -e 210 -c 0 -i 37 -a 0 -x {1.0 3.0 32 ------- null}
h -t 0.32 -s 1 -d 2 -p cbr -e 210 -c 0 -i 37 -a 0 -x {1.0 3.0 -1 ------- null}
r -t 0.3212836 -s 1 -d 2 -p cbr -e 210 -c 0 -i 36 -a 0 -x {1.0 3.0 31 ------- null}
+ -t 0.3212836 -s 2 -d 3 -p cbr -e 210 -c 0 -i 36 -a 0 -x {1.0 3.0 31 ------- null}
- -t 0.3212836 -s 2 -d 3 -p cbr -e 210 -c 0 -i 36 -a 0 -x {1.0 3.0 31 ------- null}
h -t 0.3212836 -s 2 -d 3 -p cbr -e 210 -c 0 -i 36 -a 0 -x {1.0 3.0 -1 ------- null}
+ -t 0.32375 -s 1 -d 2 -p cbr -e 210 -c 0 -i 38 -a 0 -x {1.0 3.0 33 ------- null}
- -t 0.32375 -s 1 -d 2 -p cbr -e 210 -c 0 -i 38 -a 0 -x {1.0 3.0 33 ------- null}
h -t 0.32375 -s 1 -d 2 -p cbr -e 210 -c 0 -i 38 -a 0 -x {1.0 3.0 -1 ------- null}
r -t 0.3250336 -s 1 -d 2 -p cbr -e 210 -c 0 -i 37 -a 0 -x {1.0 3.0 32 ------- null}
+ -t 0.3250336 -s 2 -d 3 -p cbr -e 210 -c 0 -i 37 -a 0 -x {1.0 3.0 32 ------- null}
- -t 0.3250336 -s 2 -d 3 -p cbr -e 210 -c 0 -i 37 -a 0 -x {1.0 3.0 32 ------- null}
h -t 0.3250336 -s 2 -d 3 -p cbr -e 210 -c 0 -i 37 -a 0 -x {1.0 3.0 -1 ------- null}
+ -t 0.3275 -s 1 -d 2 -p cbr -e 210 -c 0 -i 39 -a 0 -x {1.0 3.0 34 ------- null}
- -t 0.3275 -s 1 -d 2 -p cbr -e 210 -c 0 -i 39 -a 0 -x {1.0 3.0 34 ------- null}
h -t 0.3275 -s 1 -d 2 -p cbr -e 210 -c 0 -i 39 -a 0 -x {1.0 3.0 -1 ------- null}
r -t 0.3287836 -s 1 -d 2 -p cbr -e 210 -c 0 -i 38 -a 0 -x {1.0 3.0 33 ------- null}
+ -t 0.3287836 -s 2 -d 3 -p cbr -e 210 -c 0 -i 38 -a 0 -x {1.0 3.0 33 ------- null}
- -t 0.3287836 -s 2 -d 3 -p cbr -e 210 -c 0 -i 38 -a 0 -x {1.0 3.0 33 ------- null}
h -t 0.3287836 -s 2 -d 3 -p cbr -e 210 -c 0 -i 38 -a 0 -x {1.0 3.0 -1 ------- null}
+ -t 0.33125 -s 1 -d 2 -p cbr -e 210 -c 0 -i 40 -a 0 -x {1.0 3.0 35 ------- null}
- -t 0.33125 -s 1 -d 2 -p cbr -e 210 -c 0 -i 40 -a 0 -x {1.0 3.0 35 ------- null}
h -t 0.33125 -s 1 -d 2 -p cbr -e 210 -c 0 -i 40 -a 0 -x {1.0 3.0 -1 ------- null}
r -t 0.3325336 -s 1 -d 2 -p cbr -e 210 -c 0 -i 39 -a 0 -x {1.0 3.0 34 ------- null}
+ -t 0.3325336 -s 2 -d 3 -p cbr -e 210 -c 0 -i 39 -a 0 -x {1.0 3.0 34 ------- null}
- -t 0.3325336 -s 2 -d 3 -p cbr -e 210 -c 0 -i 39 -a 0 -x {1.0 3.0 34 ------- null}
h -t 0.3325336 -s 2 -d 3 -p cbr -e 210 -c 0 -i 39 -a 0 -x {1.0 3.0 -1 ------- null}
+ -t 0.335 -s 1 -d 2 -p cbr -e 210 -c 0 -i 41 -a 0 -x {1.0 3.0 36 ------- null}
- -t 0.335 -s 1 -d 2 -p cbr -e 210 -c 0 -i 41 -a 0 -x {1.0 3.0 36 ------- null}
h -t 0.335 -s 1 -d 2 -p cbr -e 210 -c 0 -i 41 -a 0 -x {1.0 3.0 -1 ------- null}
r -t 0.3362836 -s 1 -d 2 -p cbr -e 210 -c 0 -i 40 -a 0 -x {1.0 3.0 35 ------- null}
+ -t 0.3362836 -s 2 -d 3 -p cbr -e 210 -c 0 -i 40 -a 0 -x {1.0 3.0 35 ------- null}
- -t 0.3362836 -s 2 -d 3 -p cbr -e 210 -c 0 -i 40 -a 0 -x {1.0 3.0 35 ------- null}
h -t 0.3362836 -s 2 -d 3 -p cbr -e 210 -c 0 -i 40 -a 0 -x {1.0 3.0 -1 ------- null}
+ -t 0.338749999999999 -s 1 -d 2 -p cbr -e 210 -c 0 -i 42 -a 0 -x {1.0 3.0 37 ------- null}
- -t 0.338749999999999 -s 1 -d 2 -p cbr -e 210 -c 0 -i 42 -a 0 -x {1.0 3.0 37 ------- null}
h -t 0.338749999999999 -s 1 -d 2 -p cbr -e 210 -c 0 -i 42 -a 0 -x {1.0 3.0 -1 ------- null}
r -t 0.3400336 -s 1 -d 2 -p cbr -e 210 -c 0 -i 41 -a 0 -x {1.0 3.0 36 ------- null}
+ -t 0.3400336 -s 2 -d 3 -p cbr -e 210 -c 0 -i 41 -a 0 -x {1.0 3.0 36 ------- null}
- -t 0.3400336 -s 2 -d 3 -p cbr -e 210 -c 0 -i 41 -a 0 -x {1.0 3.0 36 ------- null}
h -t 0.3400336 -s 2 -d 3 -p cbr -e 210 -c 0 -i 41 -a 0 -x {1.0 3.0 -1 ------- null}
+ -t 0.342499999999999 -s 1 -d 2 -p cbr -e 210 -c 0 -i 43 -a 0 -x {1.0 3.0 38 ------- null}
- -t 0.342499999999999 -s 1 -d 2 -p cbr -e 210 -c 0 -i 43 -a 0 -x {1.0 3.0 38 ------- null}
h -t 0.342499999999999 -s 1 -d 2 -p cbr -e 210 -c 0 -i 43 -a 0 -x {1.0 3.0 -1 ------- null}
r -t 0.3437836 -s 1 -d 2 -p cbr -e 210 -c 0 -i 42 -a 0 -x {1.0 3.0 37 ------- null}
+ -t 0.3437836 -s 2 -d 3 -p cbr -e 210 -c 0 -i 42 -a 0 -x {1.0 3.0 37 ------- null}
- -t 0.3437836 -s 2 -d 3 -p cbr -e 210 -c 0 -i 42 -a 0 -x {1.0 3.0 37 ------- null}
h -t 0.3437836 -s 2 -d 3 -p cbr -e 210 -c 0 -i 42 -a 0 -x {1.0 3.0 -1 ------- null}
+ -t 0.346249999999999 -s 1 -d 2 -p cbr -e 210 -c 0 -i 44 -a 0 -x {1.0 3.0 39 ------- null}
- -t 0.346249999999999 -s 1 -d 2 -p cbr -e 210 -c 0 -i 44 -a 0 -x {1.0 3.0 39 ------- null}
h -t 0.346249999999999 -s 1 -d 2 -p cbr -e 210 -c 0 -i 44 -a 0 -x {1.0 3.0 -1 ------- null}
r -t 0.347533599999999 -s 1 -d 2 -p cbr -e 210 -c 0 -i 43 -a 0 -x {1.0 3.0 38 ------- null}
+ -t 0.347533599999999 -s 2 -d 3 -p cbr -e 210 -c 0 -i 43 -a 0 -x {1.0 3.0 38 ------- null}
- -t 0.347533599999999 -s 2 -d 3 -p cbr -e 210 -c 0 -i 43 -a 0 -x {1.0 3.0 38 ------- null}
h -t 0.347533599999999 -s 2 -d 3 -p cbr -e 210 -c 0 -i 43 -a 0 -x {1.0 3.0 -1 ------- null}
+ -t 0.349999999999999 -s 1 -d 2 -p cbr -e 210 -c 0 -i 45 -a 0 -x {1.0 3.0 40 ------- null}
- -t 0.349999999999999 -s 1 -d 2 -p cbr -e 210 -c 0 -i 45 -a 0 -x {1.0 3.0 40 ------- null}
h -t 0.349999999999999 -s 1 -d 2 -p cbr -e 210 -c 0 -i 45 -a 0 -x {1.0 3.0 -1 ------- null}
r -t 0.351283599999999 -s 1 -d 2 -p cbr -e 210 -c 0 -i 44 -a 0 -x {1.0 3.0 39 ------- null}
+ -t 0.351283599999999 -s 2 -d 3 -p cbr -e 210 -c 0 -i 44 -a 0 -x {1.0 3.0 39 ------- null}
- -t 0.351283599999999 -s 2 -d 3 -p cbr -e 210 -c 0 -i 44 -a 0 -x {1.0 3.0 39 ------- null}
h -t 0.351283599999999 -s 2 -d 3 -p cbr -e 210 -c 0 -i 44 -a 0 -x {1.0 3.0 -1 ------- null}
+ -t 0.353749999999999 -s 1 -d 2 -p cbr -e 210 -c 0 -i 46 -a 0 -x {1.0 3.0 41 ------- null}
- -t 0.353749999999999 -s 1 -d 2 -p cbr -e 210 -c 0 -i 46 -a 0 -x {1.0 3.0 41 ------- null}
h -t 0.353749999999999 -s 1 -d 2 -p cbr -e 210 -c 0 -i 46 -a 0 -x {1.0 3.0 -1 ------- null}
r -t 0.355033599999999 -s 1 -d 2 -p cbr -e 210 -c 0 -i 45 -a 0 -x {1.0 3.0 40 ------- null}
+ -t 0.355033599999999 -s 2 -d 3 -p cbr -e 210 -c 0 -i 45 -a 0 -x {1.0 3.0 40 ------- null}
- -t 0.355033599999999 -s 2 -d 3 -p cbr -e 210 -c 0 -i 45 -a 0 -x {1.0 3.0 40 ------- null}
h -t 0.355033599999999 -s 2 -d 3 -p cbr -e 210 -c 0 -i 45 -a 0 -x {1.0 3.0 -1 ------- null}
+ -t 0.357499999999999 -s 1 -d 2 -p cbr -e 210 -c 0 -i 47 -a 0 -x {1.0 3.0 42 ------- null}
- -t 0.357499999999999 -s 1 -d 2 -p cbr -e 210 -c 0 -i 47 -a 0 -x {1.0 3.0 42 ------- null}
h -t 0.357499999999999 -s 1 -d 2 -p cbr -e 210 -c 0 -i 47 -a 0 -x {1.0 3.0 -1 ------- null}
r -t 0.358783599999999 -s 1 -d 2 -p cbr -e 210 -c 0 -i 46 -a 0 -x {1.0 3.0 41 ------- null}
+ -t 0.358783599999999 -s 2 -d 3 -p cbr -e 210 -c 0 -i 46 -a 0 -x {1.0 3.0 41 ------- null}
- -t 0.358783599999999 -s 2 -d 3 -p cbr -e 210 -c 0 -i 46 -a 0 -x {1.0 3.0 41 ------- null}
h -t 0.358783599999999 -s 2 -d 3 -p cbr -e 210 -c 0 -i 46 -a 0 -x {1.0 3.0 -1 ------- null}
+ -t 0.361249999999999 -s 1 -d 2 -p cbr -e 210 -c 0 -i 48 -a 0 -x {1.0 3.0 43 ------- null}
- -t 0.361249999999999 -s 1 -d 2 -p cbr -e 210 -c 0 -i 48 -a 0 -x {1.0 3.0 43 ------- null}
h -t 0.361249999999999 -s 1 -d 2 -p cbr -e 210 -c 0 -i 48 -a 0 -x {1.0 3.0 -1 ------- null}
r -t 0.362533599999999 -s 1 -d 2 -p cbr -e 210 -c 0 -i 47 -a 0 -x {1.0 3.0 42 ------- null}
+ -t 0.362533599999999 -s 2 -d 3 -p cbr -e 210 -c 0 -i 47 -a 0 -x {1.0 3.0 42 ------- null}
- -t 0.362533599999999 -s 2 -d 3 -p cbr -e 210 -c 0 -i 47 -a 0 -x {1.0 3.0 42 ------- null}
h -t 0.362533599999999 -s 2 -d 3 -p cbr -e 210 -c 0 -i 47 -a 0 -x {1.0 3.0 -1 ------- null}
+ -t 0.364999999999999 -s 1 -d 2 -p cbr -e 210 -c 0 -i 49 -a 0 -x {1.0 3.0 44 ------- null}
- -t 0.364999999999999 -s 1 -d 2 -p cbr -e 210 -c 0 -i 49 -a 0 -x {1.0 3.0 44 ------- null}
h -t 0.364999999999999 -s 1 -d 2 -p cbr -e 210 -c 0 -i 49 -a 0 -x {1.0 3.0 -1 ------- null}
r -t 0.366283599999999 -s 1 -d 2 -p cbr -e 210 -c 0 -i 48 -a 0 -x {1.0 3.0 43 ------- null}
+ -t 0.366283599999999 -s 2 -d 3 -p cbr -e 210 -c 0 -i 48 -a 0 -x {1.0 3.0 43 ------- null}
- -t 0.366283599999999 -s 2 -d 3 -p cbr -e 210 -c 0 -i 48 -a 0 -x {1.0 3.0 43 ------- null}
h -t 0.366283599999999 -s 2 -d 3 -p cbr -e 210 -c 0 -i 48 -a 0 -x {1.0 3.0 -1 ------- null}
+ -t 0.368749999999999 -s 1 -d 2 -p cbr -e 210 -c 0 -i 50 -a 0 -x {1.0 3.0 45 ------- null}
- -t 0.368749999999999 -s 1 -d 2 -p cbr -e 210 -c 0 -i 50 -a 0 -x {1.0 3.0 45 ------- null}
h -t 0.368749999999999 -s 1 -d 2 -p cbr -e 210 -c 0 -i 50 -a 0 -x {1.0 3.0 -1 ------- null}
r -t 0.370033599999999 -s 1 -d 2 -p cbr -e 210 -c 0 -i 49 -a 0 -x {1.0 3.0 44 ------- null}
+ -t 0.370033599999999 -s 2 -d 3 -p cbr -e 210 -c 0 -i 49 -a 0 -x {1.0 3.0 44 ------- null}
- -t 0.370033599999999 -s 2 -d 3 -p cbr -e 210 -c 0 -i 49 -a 0 -x {1.0 3.0 44 ------- null}
h -t 0.370033599999999 -s 2 -d 3 -p cbr -e 210 -c 0 -i 49 -a 0 -x {1.0 3.0 -1 ------- null}