+ 0.1 0 2 cbr 1000 ------- 0 0.0 3.0 0 0
- 0.1 0 2 cbr 1000 ------- 0 0.0 3.0 0 0
+ 0.1 0 2 cbr 1000 ------- 0 0.0 3.0 1 1
+ 0.1 0 2 cbr 1000 ------- 0 0.0 3.0 2 2
+ 0.1 0 2 cbr 1000 ------- 0 0.0 3.0 3 3
+ 0.1 0 2 cbr 1000 ------- 0 0.0 3.0 4 4
d 0.1 0 2 cbr 1000 ------- 0 0.0 3.0 4 4
- 0.1004 0 2 cbr 1000 ------- 0 0.0 3.0 1 1
- 0.1008 0 2 cbr 1000 ------- 0 0.0 3.0 2 2
- 0.1012 0 2 cbr 1000 ------- 0 0.0 3.0 3 3
r 0.1104 0 2 cbr 1000 ------- 0 0.0 3.0 0 0
+ 0.1104 2 3 cbr 1000 ------- 0 0.0 3.0 0 0
- 0.1104 2 3 cbr 1000 ------- 0 0.0 3.0 0 0
r 0.1108 0 2 cbr 1000 ------- 0 0.0 3.0 1 1
+ 0.1108 2 3 cbr 1000 ------- 0 0.0 3.0 1 1
r 0.1112 0 2 cbr 1000 ------- 0 0.0 3.0 2 2
+ 0.1112 2 3 cbr 1000 ------- 0 0.0 3.0 2 2
- 0.1112 2 3 cbr 1000 ------- 0 0.0 3.0 1 1
r 0.1116 0 2 cbr 1000 ------- 0 0.0 3.0 3 3
+ 0.1116 2 3 cbr 1000 ------- 0 0.0 3.0 3 3
- 0.112 2 3 cbr 1000 ------- 0 0.0 3.0 2 2
- 0.1128 2 3 cbr 1000 ------- 0 0.0 3.0 3 3
+ 0.2 1 2 cbr 210 ------- 0 1.0 3.0 0 5
- 0.2 1 2 cbr 210 ------- 0 1.0 3.0 0 5
+ 0.20375 1 2 cbr 210 ------- 0 1.0 3.0 1 6
- 0.20375 1 2 cbr 210 ------- 0 1.0 3.0 1 6
r 0.205034 1 2 cbr 210 ------- 0 1.0 3.0 0 5
+ 0.205034 2 3 cbr 210 ------- 0 1.0 3.0 0 5
- 0.205034 2 3 cbr 210 ------- 0 1.0 3.0 0 5
+ 0.2075 1 2 cbr 210 ------- 0 1.0 3.0 2 7
- 0.2075 1 2 cbr 210 ------- 0 1.0 3.0 2 7
r 0.208784 1 2 cbr 210 ------- 0 1.0 3.0 1 6
+ 0.208784 2 3 cbr 210 ------- 0 1.0 3.0 1 6
- 0.208784 2 3 cbr 210 ------- 0 1.0 3.0 1 6
+ 0.21125 1 2 cbr 210 ------- 0 1.0 3.0 3 8
- 0.21125 1 2 cbr 210 ------- 0 1.0 3.0 3 8
r 0.212534 1 2 cbr 210 ------- 0 1.0 3.0 2 7
+ 0.212534 2 3 cbr 210 ------- 0 1.0 3.0 2 7
- 0.212534 2 3 cbr 210 ------- 0 1.0 3.0 2 7
+ 0.215 1 2 cbr 210 ------- 0 1.0 3.0 4 9
- 0.215 1 2 cbr 210 ------- 0 1.0 3.0 4 9
r 0.216284 1 2 cbr 210 ------- 0 1.0 3.0 3 8
+ 0.216284 2 3 cbr 210 ------- 0 1.0 3.0 3 8
- 0.216284 2 3 cbr 210 ------- 0 1.0 3.0 3 8
+ 0.21875 1 2 cbr 210 ------- 0 1.0 3.0 5 10
- 0.21875 1 2 cbr 210 ------- 0 1.0 3.0 5 10
r 0.220034 1 2 cbr 210 ------- 0 1.0 3.0 4 9
+ 0.220034 2 3 cbr 210 ------- 0 1.0 3.0 4 9
- 0.220034 2 3 cbr 210 ------- 0 1.0 3.0 4 9
+ 0.2225 1 2 cbr 210 ------- 0 1.0 3.0 6 11
- 0.2225 1 2 cbr 210 ------- 0 1.0 3.0 6 11
r 0.223784 1 2 cbr 210 ------- 0 1.0 3.0 5 10
+ 0.223784 2 3 cbr 210 ------- 0 1.0 3.0 5 10
- 0.223784 2 3 cbr 210 ------- 0 1.0 3.0 5 10
+ 0.22625 1 2 cbr 210 ------- 0 1.0 3.0 7 12
- 0.22625 1 2 cbr 210 ------- 0 1.0 3.0 7 12
r 0.227534 1 2 cbr 210 ------- 0 1.0 3.0 6 11
+ 0.227534 2 3 cbr 210 ------- 0 1.0 3.0 6 11
- 0.227534 2 3 cbr 210 ------- 0 1.0 3.0 6 11
+ 0.23 1 2 cbr 210 ------- 0 1.0 3.0 8 13
- 0.23 1 2 cbr 210 ------- 0 1.0 3.0 8 13
r 0.231284 1 2 cbr 210 ------- 0 1.0 3.0 7 12
+ 0.231284 2 3 cbr 210 ------- 0 1.0 3.0 7 12
- 0.231284 2 3 cbr 210 ------- 0 1.0 3.0 7 12
+ 0.23375 1 2 cbr 210 ------- 0 1.0 3.0 9 14
- 0.23375 1 2 cbr 210 ------- 0 1.0 3.0 9 14
r 0.235034 1 2 cbr 210 ------- 0 1.0 3.0 8 13
+ 0.235034 2 3 cbr 210 ------- 0 1.0 3.0 8 13
- 0.235034 2 3 cbr 210 ------- 0 1.0 3.0 8 13
+ 0.2375 1 2 cbr 210 ------- 0 1.0 3.0 10 15
- 0.2375 1 2 cbr 210 ------- 0 1.0 3.0 10 15
r 0.238784 1 2 cbr 210 ------- 0 1.0 3.0 9 14
+ 0.238784 2 3 cbr 210 ------- 0 1.0 3.0 9 14
- 0.238784 2 3 cbr 210 ------- 0 1.0 3.0 9 14
+ 0.24125 1 2 cbr 210 ------- 0 1.0 3.0 11 16
- 0.24125 1 2 cbr 210 ------- 0 1.0 3.0 11 16
r 0.242534 1 2 cbr 210 ------- 0 1.0 3.0 10 15
+ 0.242534 2 3 cbr 210 ------- 0 1.0 3.0 10 15
- 0.242534 2 3 cbr 210 ------- 0 1.0 3.0 10 15
+ 0.245 1 2 cbr 210 ------- 0 1.0 3.0 12 17
- 0.245 1 2 cbr 210 ------- 0 1.0 3.0 12 17
r 0.246284 1 2 cbr 210 ------- 0 1.0 3.0 11 16
+ 0.246284 2 3 cbr 210 ------- 0 1.0 3.0 11 16
- 0.246284 2 3 cbr 210 ------- 0 1.0 3.0 11 16
+ 0.24875 1 2 cbr 210 ------- 0 1.0 3.0 13 18
- 0.24875 1 2 cbr 210 ------- 0 1.0 3.0 13 18
r 0.250034 1 2 cbr 210 ------- 0 1.0 3.0 12 17
+ 0.250034 2 3 cbr 210 ------- 0 1.0 3.0 12 17
- 0.250034 2 3 cbr 210 ------- 0 1.0 3.0 12 17
+ 0.2525 1 2 cbr 210 ------- 0 1.0 3.0 14 19
- 0.2525 1 2 cbr 210 ------- 0 1.0 3.0 14 19
r 0.253784 1 2 cbr 210 ------- 0 1.0 3.0 13 18
+ 0.253784 2 3 cbr 210 ------- 0 1.0 3.0 13 18
- 0.253784 2 3 cbr 210 ------- 0 1.0 3.0 13 18
+ 0.25625 1 2 cbr 210 ------- 0 1.0 3.0 15 20
- 0.25625 1 2 cbr 210 ------- 0 1.0 3.0 15 20
r 0.257534 1 2 cbr 210 ------- 0 1.0 3.0 14 19
+ 0.257534 2 3 cbr 210 ------- 0 1.0 3.0 14 19
- 0.257534 2 3 cbr 210 ------- 0 1.0 3.0 14 19
+ 0.26 1 2 cbr 210 ------- 0 1.0 3.0 16 21
- 0.26 1 2 cbr 210 ------- 0 1.0 3.0 16 21
r 0.261284 1 2 cbr 210 ------- 0 1.0 3.0 15 20
+ 0.261284 2 3 cbr 210 ------- 0 1.0 3.0 15 20
- 0.261284 2 3 cbr 210 ------- 0 1.0 3.0 15 20
+ 0.26375 1 2 cbr 210 ------- 0 1.0 3.0 17 22
- 0.26375 1 2 cbr 210 ------- 0 1.0 3.0 17 22
r 0.265034 1 2 cbr 210 ------- 0 1.0 3.0 16 21
+ 0.265034 2 3 cbr 210 ------- 0 1.0 3.0 16 21
- 0.265034 2 3 cbr 210 ------- 0 1.0 3.0 16 21
+ 0.2675 1 2 cbr 210 ------- 0 1.0 3.0 18 23
- 0.2675 1 2 cbr 210 ------- 0 1.0 3.0 18 23
r 0.268784 1 2 cbr 210 ------- 0 1.0 3.0 17 22
+ 0.268784 2 3 cbr 210 ------- 0 1.0 3.0 17 22
- 0.268784 2 3 cbr 210 ------- 0 1.0 3.0 17 22
+ 0.27125 1 2 cbr 210 ------- 0 1.0 3.0 19 24
- 0.27125 1 2 cbr 210 ------- 0 1.0 3.0 19 24
r 0.272534 1 2 cbr 210 ------- 0 1.0 3.0 18 23
+ 0.272534 2 3 cbr 210 ------- 0 1.0 3.0 18 23
- 0.272534 2 3 cbr 210 ------- 0 1.0 3.0 18 23
+ 0.275 1 2 cbr 210 ------- 0 1.0 3.0 20 25
- 0.275 1 2 cbr 210 ------- 0 1.0 3.0 20 25
r 0.276284 1 2 cbr 210 ------- 0 1.0 3.0 19 24
+ 0.276284 2 3 cbr 210 ------- 0 1.0 3.0 19 24
- 0.276284 2 3 cbr 210 ------- 0 1.0 3.0 19 24
+ 0.27875 1 2 cbr 210 ------- 0 1.0 3.0 21 26
- 0.27875 1 2 cbr 210 ------- 0 1.0 3.0 21 26
r 0.280034 1 2 cbr 210 ------- 0 1.0 3.0 20 25
+ 0.280034 2 3 cbr 210 ------- 0 1.0 3.0 20 25
- 0.280034 2 3 cbr 210 ------- 0 1.0 3.0 20 25
+ 0.2825 1 2 cbr 210 ------- 0 1.0 3.0 22 27
- 0.2825 1 2 cbr 210 ------- 0 1.0 3.0 22 27
r 0.283784 1 2 cbr 210 ------- 0 1.0 3.0 21 26
+ 0.283784 2 3 cbr 210 ------- 0 1.0 3.0 21 26
- 0.283784 2 3 cbr 210 ------- 0 1.0 3.0 21 26
+ 0.28625 1 2 cbr 210 ------- 0 1.0 3.0 23 28
- 0.28625 1 2 cbr 210 ------- 0 1.0 3.0 23 28
r 0.287534 1 2 cbr 210 ------- 0 1.0 3.0 22 27
+ 0.287534 2 3 cbr 210 ------- 0 1.0 3.0 22 27
- 0.287534 2 3 cbr 210 ------- 0 1.0 3.0 22 27
+ 0.29 1 2 cbr 210 ------- 0 1.0 3.0 24 29
- 0.29 1 2 cbr 210 ------- 0 1.0 3.0 24 29
r 0.291284 1 2 cbr 210 ------- 0 1.0 3.0 23 28
+ 0.291284 2 3 cbr 210 ------- 0 1.0 3.0 23 28
- 0.291284 2 3 cbr 210 ------- 0 1.0 3.0 23 28
+ 0.29375 1 2 cbr 210 ------- 0 1.0 3.0 25 30
- 0.29375 1 2 cbr 210 ------- 0 1.0 3.0 25 30
r 0.295034 1 2 cbr 210 ------- 0 1.0 3.0 24 29
+ 0.295034 2 3 cbr 210 ------- 0 1.0 3.0 24 29
- 0.295034 2 3 cbr 210 ------- 0 1.0 3.0 24 29
+ 0.2975 1 2 cbr 210 ------- 0 1.0 3.0 26 31
- 0.2975 1 2 cbr 210 ------- 0 1.0 3.0 26 31
r 0.298784 1 2 cbr 210 ------- 0 1.0 3.0 25 30
+ 0.298784 2 3 cbr 210 ------- 0 1.0 3.0 25 30
- 0.298784 2 3 cbr 210 ------- 0 1.0 3.0 25 30
+ 0.30125 1 2 cbr 210 ------- 0 1.0 3.0 27 32
- 0.30125 1 2 cbr 210 ------- 0 1.0 3.0 27 32
r 0.302534 1 2 cbr 210 ------- 0 1.0 3.0 26 31
+ 0.302534 2 3 cbr 210 ------- 0 1.0 3.0 26 31
- 0.302534 2 3 cbr 210 ------- 0 1.0 3.0 26 31
+ 0.305 1 2 cbr 210 ------- 0 1.0 3.0 28 33
- 0.305 1 2 cbr 210 ------- 0 1.0 3.0 28 33
r 0.306284 1 2 cbr 210 ------- 0 1.0 3.0 27 32
+ 0.306284 2 3 cbr 210 ------- 0 1.0 3.0 27 32
- 0.306284 2 3 cbr 210 ------- 0 1.0 3.0 27 32
+ 0.30875 1 2 cbr 210 ------- 0 1.0 3.0 29 34
- 0.30875 1 2 cbr 210 ------- 0 1.0 3.0 29 34
r 0.310034 1 2 cbr 210 ------- 0 1.0 3.0 28 33
+ 0.310034 2 3 cbr 210 ------- 0 1.0 3.0 28 33
- 0.310034 2 3 cbr 210 ------- 0 1.0 3.0 28 33
+ 0.3125 1 2 cbr 210 ------- 0 1.0 3.0 30 35
- 0.3125 1 2 cbr 210 ------- 0 1.0 3.0 30 35
r 0.313784 1 2 cbr 210 ------- 0 1.0 3.0 29 34
+ 0.313784 2 3 cbr 210 ------- 0 1.0 3.0 29 34
- 0.313784 2 3 cbr 210 ------- 0 1.0 3.0 29 34
+ 0.31625 1 2 cbr 210 ------- 0 1.0 3.0 31 36
- 0.31625 1 2 cbr 210 ------- 0 1.0 3.0 31 36
r 0.317534 1 2 cbr 210 ------- 0 1.0 3.0 30 35
+ 0.317534 2 3 cbr 210 ------- 0 1.0 3.0 30 35
- 0.317534 2 3 cbr 210 ------- 0 1.0 3.0 30 35
+ 0.32 1 2 cbr 210 ------- 0 1.0 3.0 32 37
- 0.32 1 2 cbr 210 ------- 0 1.0 3.0 32 37
r 0.321284 1 2 cbr 210 ------- 0 1.0 3.0 31 36
+ 0.321284 2 3 cbr 210 ------- 0 1.0 3.0 31 36
- 0.321284 2 3 cbr 210 ------- 0 1.0 3.0 31 36
+ 0.32375 1 2 cbr 210 ------- 0 1.0 3.0 33 38
- 0.32375 1 2 cbr 210 ------- 0 1.0 3.0 33 38
r 0.325034 1 2 cbr 210 ------- 0 1.0 3.0 32 37
+ 0.325034 2 3 cbr 210 ------- 0 1.0 3.0 32 37
- 0.325034 2 3 cbr 210 ------- 0 1.0 3.0 32 37
+ 0.3275 1 2 cbr 210 ------- 0 1.0 3.0 34 39
- 0.3275 1 2 cbr 210 ------- 0 1.0 3.0 34 39
r 0.328784 1 2 cbr 210 ------- 0 1.0 3.0 33 38
+ 0.328784 2 3 cbr 210 ------- 0 1.0 3.0 33 38
- 0.328784 2 3 cbr 210 ------- 0 1.0 3.0 33 38
+ 0.33125 1 2 cbr 210 ------- 0 1.0 3.0 35 40
- 0.33125 1 2 cbr 210 ------- 0 1.0 3.0 35 40
r 0.332534 1 2 cbr 210 ------- 0 1.0 3.0 34 39
+ 0.332534 2 3 cbr 210 ------- 0 1.0 3.0 34 39
- 0.332534 2 3 cbr 210 ------- 0 1.0 3.0 34 39
+ 0.335 1 2 cbr 210 ------- 0 1.0 3.0 36 41
- 0.335 1 2 cbr 210 ------- 0 1.0 3.0 36 41
r 0.336284 1 2 cbr 210 ------- 0 1.0 3.0 35 40
+ 0.336284 2 3 cbr 210 ------- 0 1.0 3.0 35 40
- 0.336284 2 3 cbr 210 ------- 0 1.0 3.0 35 40
+ 0.33875 1 2 cbr 210 ------- 0 1.0 3.0 37 42
- 0.33875 1 2 cbr 210 ------- 0 1.0 3.0 37 42
r 0.340034 1 2 cbr 210 ------- 0 1.0 3.0 36 41
+ 0.340034 2 3 cbr 210 ------- 0 1.0 3.0 36 41
- 0.340034 2 3 cbr 210 ------- 0 1.0 3.0 36 41
+ 0.3425 1 2 cbr 210 ------- 0 1.0 3.0 38 43
- 0.3425 1 2 cbr 210 ------- 0 1.0 3.0 38 43
r 0.343784 1 2 cbr 210 ------- 0 1.0 3.0 37 42
+ 0.343784 2 3 cbr 210 ------- 0 1.0 3.0 37 42
- 0.343784 2 3 cbr 210 ------- 0 1.0 3.0 37 42
+ 0.34625 1 2 cbr 210 ------- 0 1.0 3.0 39 44
- 0.34625 1 2 cbr 210 ------- 0 1.0 3.0 39 44
r 0.347534 1 2 cbr 210 ------- 0 1.0 3.0 38 43
+ 0.347534 2 3 cbr 210 ------- 0 1.0 3.0 38 43
- 0.347534 2 3 cbr 210 ------- 0 1.0 3.0 38 43
+ 0.35 1 2 cbr 210 ------- 0 1.0 3.0 40 45
- 0.35 1 2 cbr 210 ------- 0 1.0 3.0 40 45
r 0.351284 1 2 cbr 210 ------- 0 1.0 3.0 39 44
+ 0.351284 2 3 cbr 210 ------- 0 1.0 3.0 39 44
- 0.351284 2 3 cbr 210 ------- 0 1.0 3.0 39 44
+ 0.35375 1 2 cbr 210 ------- 0 1.0 3.0 41 46
- 0.35375 1 2 cbr 210 ------- 0 1.0 3.0 41 46
r 0.355034 1 2 cbr 210 ------- 0 1.0 3.0 40 45
+ 0.355034 2 3 cbr 210 ------- 0 1.0 3.0 40 45
- 0.355034 2 3 cbr 210 ------- 0 1.0 3.0 40 45
+ 0.3575 1 2 cbr 210 ------- 0 1.0 3.0 42 47
- 0.3575 1 2 cbr 210 ------- 0 1.0 3.0 42 47
r 0.358784 1 2 cbr 210 ------- 0 1.0 3.0 41 46
+ 0.358784 2 3 cbr 210 ------- 0 1.0 3.0 41 46
- 0.358784 2 3 cbr 210 ------- 0 1.0 3.0 41 46
+ 0.36125 1 2 cbr 210 ------- 0 1.0 3.0 43 48
- 0.36125 1 2 cbr 210 ------- 0 1.0 3.0 43 48
r 0.362534 1 2 cbr 210 ------- 0 1.0 3.0 42 47
+ 0.362534 2 3 cbr 210 ------- 0 1.0 3.0 42 47
- 0.362534 2 3 cbr 210 ------- 0 1.0 3.0 42 47
+ 0.365 1 2 cbr 210 ------- 0 1.0 3.0 44 49
- 0.365 1 2 cbr 210 ------- 0 1.0 3.0 44 49
r 0.366284 1 2 cbr 210 ------- 0 1.0 3.0 43 48
+ 0.366284 2 3 cbr 210 ------- 0 1.0 3.0 43 48
- 0.366284 2 3 cbr 210 ------- 0 1.0 3.0 43 48
+ 0.36875 1 2 cbr 210 ------- 0 1.0 3.0 45 50
- 0.36875 1 2 cbr 210 ------- 0 1.0 3.0 45 50
r 0.370034 1 2 cbr 210 ------- 0 1.0 3.0 44 49
+ 0.370034 2 3 cbr 210 ------- 0 1.0 3.0 44 49
- 0.370034 2 3 cbr 210 ------- 0 1.0 3.0 44 49
+ 0.3725 1 2 cbr 210 ------- 0 1.0 3.0 46 51
- 0.3725 1 2 cbr 210 ------- 0 1.0 3.0 46 51
r 0.373784 1 2 cbr 210 ------- 0 1.0 3.0 45 50
+ 0.373784 2 3 cbr 210 ------- 0 1.0 3.0 45 50
- 0.373784 2 3 cbr 210 ------- 0 1.0 3.0 45 50
+ 0.37625 1 2 cbr 210 ------- 0 1.0 3.0 47 52
- 0.37625 1 2 cbr 210 ------- 0 1.0 3.0 47 52
r 0.377534 1 2 cbr 210 ------- 0 1.0 3.0 46 51
+ 0.377534 2 3 cbr 210 ------- 0 1.0 3.0 46 51
- 0.377534 2 3 cbr 210 ------- 0 1.0 3.0 46 51
+ 0.38 1 2 cbr 210 ------- 0 1.0 3.0 48 53
- 0.38 1 2 cbr 210 ------- 0 1.0 3.0 48 53
r 0.381284 1 2 cbr 210 ------- 0 1.0 3.0 47 52
+ 0.381284 2 3 cbr 210 ------- 0 1.0 3.0 47 52
- 0.381284 2 3 cbr 210 ------- 0 1.0 3.0 47 52
+ 0.38375 1 2 cbr 210 ------- 0 1.0 3.0 49 54
- 0.38375 1 2 cbr 210 ------- 0 1.0 3.0 49 54
r 0.385034 1 2 cbr 210 ------- 0 1.0 3.0 48 53
+ 0.385034 2 3 cbr 210 ------- 0 1.0 3.0 48 53
- 0.385034 2 3 cbr 210 ------- 0 1.0 3.0 48 53
+ 0.3875 1 2 cbr 210 ------- 0 1.0 3.0 50 55
- 0.3875 1 2 cbr 210 ------- 0 1.0 3.0 50 55
r 0.388784 1 2 cbr 210 ------- 0 1.0 3.0 49 54
+ 0.388784 2 3 cbr 210 ------- 0 1.0 3.0 49 54
- 0.388784 2 3 cbr 210 ------- 0 1.0 3.0 49 54
+ 0.39125 1 2 cbr 210 ------- 0 1.0 3.0 51 56
- 0.39125 1 2 cbr 210 ------- 0 1.0 3.0 51 56
r 0.392534 1 2 cbr 210 ------- 0 1.0 3.0 50 55
+ 0.392534 2 3 cbr 210 ------- 0 1.0 3.0 50 55
- 0.392534 2 3 cbr 210 ------- 0 1.0 3.0 50 55
+ 0.395 1 2 cbr 210 ------- 0 1.0 3.0 52 57
- 0.395 1 2 cbr 210 ------- 0 1.0 3.0 52 57
r 0.396284 1 2 cbr 210 ------- 0 1.0 3.0 51 56
+ 0.396284 2 3 cbr 210 ------- 0 1.0 3.0 51 56
- 0.396284 2 3 cbr 210 ------- 0 1.0 3.0 51 56
+ 0.39875 1 2 cbr 210 ------- 0 1.0 3.0 53 58
- 0.39875 1 2 cbr 210 ------- 0 1.0 3.0 53 58
r 0.400034 1 2 cbr 210 ------- 0 1.0 3.0 52 57
+ 0.400034 2 3 cbr 210 ------- 0 1.0 3.0 52 57
- 0.400034 2 3 cbr 210 ------- 0 1.0 3.0 52 57
+ 0.4025 1 2 cbr 210 ------- 0 1.0 3.0 54 59
- 0.4025 1 2 cbr 210 ------- 0 1.0 3.0 54 59
r 0.403784 1 2 cbr 210 ------- 0 1.0 3.0 53 58
+ 0.403784 2 3 cbr 210 ------- 0 1.0 3.0 53 58
- 0.403784 2 3 cbr 210 ------- 0 1.0 3.0 53 58
+ 0.40625 1 2 cbr 210 ------- 0 1.0 3.0 55 60
- 0.40625 1 2 cbr 210 ------- 0 1.0 3.0 55 60
r 0.407534 1 2 cbr 210 ------- 0 1.0 3.0 54 59
+ 0.407534 2 3 cbr 210 ------- 0 1.0 3.0 54 59
- 0.407534 2 3 cbr 210 ------- 0 1.0 3.0 54 59
+ 0.41 1 2 cbr 210 ------- 0 1.0 3.0 56 61
- 0.41 1 2 cbr 210 ------- 0 1.0 3.0 56 61
r 0.411284 1 2 cbr 210 ------- 0 1.0 3.0 55 60
+ 0.411284 2 3 cbr 210 ------- 0 1.0 3.0 55 60
- 0.411284 2 3 cbr 210 ------- 0 1.0 3.0 55 60
+ 0.41375 1 2 cbr 210 ------- 0 1.0 3.0 57 62
- 0.41375 1 2 cbr 210 ------- 0 1.0 3.0 57 62
r 0.415034 1 2 cbr 210 ------- 0 1.0 3.0 56 61
+ 0.415034 2 3 cbr 210 ------- 0 1.0 3.0 56 61
- 0.415034 2 3 cbr 210 ------- 0 1.0 3.0 56 61
+ 0.4175 1 2 cbr 210 ------- 0 1.0 3.0 58 63
- 0.4175 1 2 cbr 210 ------- 0 1.0 3.0 58 63
r 0.418784 1 2 cbr 210 ------- 0 1.0 3.0 57 62
+ 0.418784 2 3 cbr 210 ------- 0 1.0 3.0 57 62
- 0.418784 2 3 cbr 210 ------- 0 1.0 3.0 57 62
+ 0.42125 1 2 cbr 210 ------- 0 1.0 3.0 59 64
- 0.42125 1 2 cbr 210 ------- 0 1.0 3.0 59 64
r 0.422534 1 2 cbr 210 ------- 0 1.0 3.0 58 63
+ 0.422534 2 3 cbr 210 ------- 0 1.0 3.0 58 63
- 0.422534 2 3 cbr 210 ------- 0 1.0 3.0 58 63
+ 0.425 1 2 cbr 210 ------- 0 1.0 3.0 60 65
- 0.425 1 2 cbr 210 ------- 0 1.0 3.0 60 65
r 0.426284 1 2 cbr 210 ------- 0 1.0 3.0 59 64
+ 0.426284 2 3 cbr 210 ------- 0 1.0 3.0 59 64
- 0.426284 2 3 cbr 210 ------- 0 1.0 3.0 59 64
+ 0.42875 1 2 cbr 210 ------- 0 1.0 3.0 61 66
- 0.42875 1 2 cbr 210 ------- 0 1.0 3.0 61 66
r 0.430034 1 2 cbr 210 ------- 0 1.0 3.0 60 65
+ 0.430034 2 3 cbr 210 ------- 0 1.0 3.0 60 65
- 0.430034 2 3 cbr 210 ------- 0 1.0 3.0 60 65
+ 0.4325 1 2 cbr 210 ------- 0 1.0 3.0 62 67
- 0.4325 1 2 cbr 210 ------- 0 1.0 3.0 62 67
r 0.433784 1 2 cbr 210 ------- 0 1.0 3.0 61 66
+ 0.433784 2 3 cbr 210 ------- 0 1.0 3.0 61 66
- 0.433784 2 3 cbr 210 ------- 0 1.0 3.0 61 66
+ 0.43625 1 2 cbr 210 ------- 0 1.0 3.0 63 68
- 0.43625 1 2 cbr 210 ------- 0 1.0 3.0 63 68
r 0.437534 1 2 cbr 210 ------- 0 1.0 3.0 62 67
+ 0.437534 2 3 cbr 210 ------- 0 1.0 3.0 62 67
- 0.437534 2 3 cbr 210 ------- 0 1.0 3.0 62 67
+ 0.44 1 2 cbr 210 ------- 0 1.0 3.0 64 69
- 0.44 1 2 cbr 210 ------- 0 1.0 3.0 64 69
r 0.441284 1 2 cbr 210 ------- 0 1.0 3.0 63 68
+ 0.441284 2 3 cbr 210 ------- 0 1.0 3.0 63 68
- 0.441284 2 3 cbr 210 ------- 0 1.0 3.0 63 68
+ 0.44375 1 2 cbr 210 ------- 0 1.0 3.0 65 70
- 0.44375 1 2 cbr 210 ------- 0 1.0 3.0 65 70
r 0.445034 1 2 cbr 210 ------- 0 1.0 3.0 64 69
+ 0.445034 2 3 cbr 210 ------- 0 1.0 3.0 64 69
- 0.445034 2 3 cbr 210 ------- 0 1.0 3.0 64 69
+ 0.4475 1 2 cbr 210 ------- 0 1.0 3.0 66 71
- 0.4475 1 2 cbr 210 ------- 0 1.0 3.0 66 71
r 0.448784 1 2 cbr 210 ------- 0 1.0 3.0 65 70
+ 0.448784 2 3 cbr 210 ------- 0 1.0 3.0 65 70
- 0.448784 2 3 cbr 210 ------- 0 1.0 3.0 65 70
+ 0.45125 1 2 cbr 210 ------- 0 1.0 3.0 67 72
- 0.45125 1 2 cbr 210 ------- 0 1.0 3.0 67 72
r 0.452534 1 2 cbr 210 ------- 0 1.0 3.0 66 71
+ 0.452534 2 3 cbr 210 ------- 0 1.0 3.0 66 71
- 0.452534 2 3 cbr 210 ------- 0 1.0 3.0 66 71
+ 0.455 1 2 cbr 210 ------- 0 1.0 3.0 68 73
- 0.455 1 2 cbr 210 ------- 0 1.0 3.0 68 73
r 0.456284 1 2 cbr 210 ------- 0 1.0 3.0 67 72
+ 0.456284 2 3 cbr 210 ------- 0 1.0 3.0 67 72
- 0.456284 2 3 cbr 210 ------- 0 1.0 3.0 67 72
+ 0.45875 1 2 cbr 210 ------- 0 1.0 3.0 69 74
- 0.45875 1 2 cbr 210 ------- 0 1.0 3.0 69 74
r 0.460034 1 2 cbr 210 ------- 0 1.0 3.0 68 73
+ 0.460034 2 3 cbr 210 ------- 0 1.0 3.0 68 73
- 0.460034 2 3 cbr 210 ------- 0 1.0 3.0 68 73
+ 0.4625 1 2 cbr 210 ------- 0 1.0 3.0 70 75
- 0.4625 1 2 cbr 210 ------- 0 1.0 3.0 70 75
r 0.463784 1 2 cbr 210 ------- 0 1.0 3.0 69 74
+ 0.463784 2 3 cbr 210 ------- 0 1.0 3.0 69 74
- 0.463784 2 3 cbr 210 ------- 0 1.0 3.0 69 74
+ 0.46625 1 2 cbr 210 ------- 0 1.0 3.0 71 76
- 0.46625 1 2 cbr 210 ------- 0 1.0 3.0 71 76
r 0.467534 1 2 cbr 210 ------- 0 1.0 3.0 70 75
+ 0.467534 2 3 cbr 210 ------- 0 1.0 3.0 70 75
- 0.467534 2 3 cbr 210 ------- 0 1.0 3.0 70 75
+ 0.47 1 2 cbr 210 ------- 0 1.0 3.0 72 77
- 0.47 1 2 cbr 210 ------- 0 1.0 3.0 72 77
r 0.471284 1 2 cbr 210 ------- 0 1.0 3.0 71 76
+ 0.471284 2 3 cbr 210 ------- 0 1.0 3.0 71 76
- 0.471284 2 3 cbr 210 ------- 0 1.0 3.0 71 76
+ 0.47375 1 2 cbr 210 ------- 0 1.0 3.0 73 78
- 0.47375 1 2 cbr 210 ------- 0 1.0 3.0 73 78
r 0.475034 1 2 cbr 210 ------- 0 1.0 3.0 72 77
+ 0.475034 2 3 cbr 210 ------- 0 1.0 3.0 72 77
- 0.475034 2 3 cbr 210 ------- 0 1.0 3.0 72 77
+ 0.4775 1 2 cbr 210 ------- 0 1.0 3.0 74 79
- 0.4775 1 2 cbr 210 ------- 0 1.0 3.0 74 79
r 0.478784 1 2 cbr 210 ------- 0 1.0 3.0 73 78
+ 0.478784 2 3 cbr 210 ------- 0 1.0 3.0 73 78
- 0.478784 2 3 cbr 210 ------- 0 1.0 3.0 73 78
+ 0.48125 1 2 cbr 210 ------- 0 1.0 3.0 75 80
- 0.48125 1 2 cbr 210 ------- 0 1.0 3.0 75 80
r 0.482534 1 2 cbr 210 ------- 0 1.0 3.0 74 79
+ 0.482534 2 3 cbr 210 ------- 0 1.0 3.0 74 79
- 0.482534 2 3 cbr 210 ------- 0 1.0 3.0 74 79
+ 0.485 1 2 cbr 210 ------- 0 1.0 3.0 76 81
- 0.485 1 2 cbr 210 ------- 0 1.0 3.0 76 81
r 0.486284 1 2 cbr 210 ------- 0 1.0 3.0 75 80
+ 0.486284 2 3 cbr 210 ------- 0 1.0 3.0 75 80
- 0.486284 2 3 cbr 210 ------- 0 1.0 3.0 75 80
+ 0.48875 1 2 cbr 210 ------- 0 1.0 3.0 77 82
- 0.48875 1 2 cbr 210 ------- 0 1.0 3.0 77 82
r 0.490034 1 2 cbr 210 ------- 0 1.0 3.0 76 81
+ 0.490034 2 3 cbr 210 ------- 0 1.0 3.0 76 81
- 0.490034 2 3 cbr 210 ------- 0 1.0 3.0 76 81
+ 0.4925 1 2 cbr 210 ------- 0 1.0 3.0 78 83
- 0.4925 1 2 cbr 210 ------- 0 1.0 3.0 78 83
r 0.493784 1 2 cbr 210 ------- 0 1.0 3.0 77 82
+ 0.493784 2 3 cbr 210 ------- 0 1.0 3.0 77 82
- 0.493784 2 3 cbr 210 ------- 0 1.0 3.0 77 82
+ 0.49625 1 2 cbr 210 ------- 0 1.0 3.0 79 84
- 0.49625 1 2 cbr 210 ------- 0 1.0 3.0 79 84
r 0.497534 1 2 cbr 210 ------- 0 1.0 3.0 78 83
+ 0.497534 2 3 cbr 210 ------- 0 1.0 3.0 78 83
- 0.497534 2 3 cbr 210 ------- 0 1.0 3.0 78 83
+ 0.5 1 2 cbr 210 ------- 0 1.0 3.0 80 85
- 0.5 1 2 cbr 210 ------- 0 1.0 3.0 80 85
r 0.501284 1 2 cbr 210 ------- 0 1.0 3.0 79 84
+ 0.501284 2 3 cbr 210 ------- 0 1.0 3.0 79 84
- 0.501284 2 3 cbr 210 ------- 0 1.0 3.0 79 84
+ 0.50375 1 2 cbr 210 ------- 0 1.0 3.0 81 86
- 0.50375 1 2 cbr 210 ------- 0 1.0 3.0 81 86
r 0.505034 1 2 cbr 210 ------- 0 1.0 3.0 80 85
+ 0.505034 2 3 cbr 210 ------- 0 1.0 3.0 80 85
- 0.505034 2 3 cbr 210 ------- 0 1.0 3.0 80 85
+ 0.5075 1 2 cbr 210 ------- 0 1.0 3.0 82 87
- 0.5075 1 2 cbr 210 ------- 0 1.0 3.0 82 87
r 0.508784 1 2 cbr 210 ------- 0 1.0 3.0 81 86
+ 0.508784 2 3 cbr 210 ------- 0 1.0 3.0 81 86
- 0.508784 2 3 cbr 210 ------- 0 1.0 3.0 81 86
+ 0.51125 1 2 cbr 210 ------- 0 1.0 3.0 83 88
- 0.51125 1 2 cbr 210 ------- 0 1.0 3.0 83 88
r 0.512534 1 2 cbr 210 ------- 0 1.0 3.0 82 87
+ 0.512534 2 3 cbr 210 ------- 0 1.0 3.0 82 87
- 0.512534 2 3 cbr 210 ------- 0 1.0 3.0 82 87
+ 0.515 1 2 cbr 210 ------- 0 1.0 3.0 84 89
- 0.515 1 2 cbr 210 ------- 0 1.0 3.0 84 89
r 0.516284 1 2 cbr 210 ------- 0 1.0 3.0 83 88
+ 0.516284 2 3 cbr 210 ------- 0 1.0 3.0 83 88
- 0.516284 2 3 cbr 210 ------- 0 1.0 3.0 83 88
+ 0.51875 1 2 cbr 210 ------- 0 1.0 3.0 85 90
- 0.51875 1 2 cbr 210 ------- 0 1.0 3.0 85 90
r 0.520034 1 2 cbr 210 ------- 0 1.0 3.0 84 89
+ 0.520034 2 3 cbr 210 ------- 0 1.0 3.0 84 89
- 0.520034 2 3 cbr 210 ------- 0 1.0 3.0 84 89
+ 0.5225 1 2 cbr 210 ------- 0 1.0 3.0 86 91
- 0.5225 1 2 cbr 210 ------- 0 1.0 3.0 86 91
r 0.523784 1 2 cbr 210 ------- 0 1.0 3.0 85 90
+ 0.523784 2 3 cbr 210 ------- 0 1.0 3.0 85 90
- 0.523784 2 3 cbr 210 ------- 0 1.0 3.0 85 90
+ 0.52625 1 2 cbr 210 ------- 0 1.0 3.0 87 92
- 0.52625 1 2 cbr 210 ------- 0 1.0 3.0 87 92
r 0.527534 1 2 cbr 210 ------- 0 1.0 3.0 86 91
+ 0.527534 2 3 cbr 210 ------- 0 1.0 3.0 86 91
- 0.527534 2 3 cbr 210 ------- 0 1.0 3.0 86 91
+ 0.53 1 2 cbr 210 ------- 0 1.0 3.0 88 93
- 0.53 1 2 cbr 210 ------- 0 1.0 3.0 88 93
r 0.531284 1 2 cbr 210 ------- 0 1.0 3.0 87 92
+ 0.531284 2 3 cbr 210 ------- 0 1.0 3.0 87 92
- 0.531284 2 3 cbr 210 ------- 0 1.0 3.0 87 92
+ 0.53375 1 2 cbr 210 ------- 0 1.0 3.0 89 94
- 0.53375 1 2 cbr 210 ------- 0 1.0 3.0 89 94
r 0.535034 1 2 cbr 210 ------- 0 1.0 3.0 88 93
+ 0.535034 2 3 cbr 210 ------- 0 1.0 3.0 88 93
- 0.535034 2 3 cbr 210 ------- 0 1.0 3.0 88 93
+ 0.5375 1 2 cbr 210 ------- 0 1.0 3.0 90 95
- 0.5375 1 2 cbr 210 ------- 0 1.0 3.0 90 95
r 0.538784 1 2 cbr 210 ------- 0 1.0 3.0 89 94
+ 0.538784 2 3 cbr 210 ------- 0 1.0 3.0 89 94
- 0.538784 2 3 cbr 210 ------- 0 1.0 3.0 89 94
+ 0.54125 1 2 cbr 210 ------- 0 1.0 3.0 91 96
- 0.54125 1 2 cbr 210 ------- 0 1.0 3.0 91 96
r 0.542534 1 2 cbr 210 ------- 0 1.0 3.0 90 95
+ 0.542534 2 3 cbr 210 ------- 0 1.0 3.0 90 95
- 0.542534 2 3 cbr 210 ------- 0 1.0 3.0 90 95
+ 0.545 1 2 cbr 210 ------- 0 1.0 3.0 92 97
- 0.545 1 2 cbr 210 ------- 0 1.0 3.0 92 97
r 0.546284 1 2 cbr 210 ------- 0 1.0 3.0 91 96
+ 0.546284 2 3 cbr 210 ------- 0 1.0 3.0 91 96
- 0.546284 2 3 cbr 210 ------- 0 1.0 3.0 91 96
+ 0.54875 1 2 cbr 210 ------- 0 1.0 3.0 93 98
- 0.54875 1 2 cbr 210 ------- 0 1.0 3.0 93 98
r 0.550034 1 2 cbr 210 ------- 0 1.0 3.0 92 97
+ 0.550034 2 3 cbr 210 ------- 0 1.0 3.0 92 97
- 0.550034 2 3 cbr 210 ------- 0 1.0 3.0 92 97
+ 0.5525 1 2 cbr 210 ------- 0 1.0 3.0 94 99
- 0.5525 1 2 cbr 210 ------- 0 1.0 3.0 94 99
r 0.553784 1 2 cbr 210 ------- 0 1.0 3.0 93 98
+ 0.553784 2 3 cbr 210 ------- 0 1.0 3.0 93 98
- 0.553784 2 3 cbr 210 ------- 0 1.0 3.0 93 98
+ 0.55625 1 2 cbr 210 ------- 0 1.0 3.0 95 100
- 0.55625 1 2 cbr 210 ------- 0 1.0 3.0 95 100
r 0.557534 1 2 cbr 210 ------- 0 1.0 3.0 94 99
+ 0.557534 2 3 cbr 210 ------- 0 1.0 3.0 94 99
- 0.557534 2 3 cbr 210 ------- 0 1.0 3.0 94 99
+ 0.56 1 2 cbr 210 ------- 0 1.0 3.0 96 101
- 0.56 1 2 cbr 210 ------- 0 1.0 3.0 96 101
r 0.561284 1 2 cbr 210 ------- 0 1.0 3.0 95 100
+ 0.561284 2 3 cbr 210 ------- 0 1.0 3.0 95 100
- 0.561284 2 3 cbr 210 ------- 0 1.0 3.0 95 100
+ 0.56375 1 2 cbr 210 ------- 0 1.0 3.0 97 102
- 0.56375 1 2 cbr 210 ------- 0 1.0 3.0 97 102
r 0.565034 1 2 cbr 210 ------- 0 1.0 3.0 96 101
+ 0.565034 2 3 cbr 210 ------- 0 1.0 3.0 96 101
- 0.565034 2 3 cbr 210 ------- 0 1.0 3.0 96 101
+ 0.5675 1 2 cbr 210 ------- 0 1.0 3.0 98 103
- 0.5675 1 2 cbr 210 ------- 0 1.0 3.0 98 103
r 0.568784 1 2 cbr 210 ------- 0 1.0 3.0 97 102
+ 0.568784 2 3 cbr 210 ------- 0 1.0 3.0 97 102
- 0.568784 2 3 cbr 210 ------- 0 1.0 3.0 97 102
+ 0.57125 1 2 cbr 210 ------- 0 1.0 3.0 99 104
- 0.57125 1 2 cbr 210 ------- 0 1.0 3.0 99 104
r 0.572534 1 2 cbr 210 ------- 0 1.0 3.0 98 103
+ 0.572534 2 3 cbr 210 ------- 0 1.0 3.0 98 103
- 0.572534 2 3 cbr 210 ------- 0 1.0 3.0 98 103
+ 0.575 1 2 cbr 210 ------- 0 1.0 3.0 100 105
- 0.575 1 2 cbr 210 ------- 0 1.0 3.0 100 105
r 0.576284 1 2 cbr 210 ------- 0 1.0 3.0 99 104
+ 0.576284 2 3 cbr 210 ------- 0 1.0 3.0 99 104
- 0.576284 2 3 cbr 210 ------- 0 1.0 3.0 99 104
+ 0.57875 1 2 cbr 210 ------- 0 1.0 3.0 101 106
- 0.57875 1 2 cbr 210 ------- 0 1.0 3.0 101 106
r 0.580034 1 2 cbr 210 ------- 0 1.0 3.0 100 105
+ 0.580034 2 3 cbr 210 ------- 0 1.0 3.0 100 105
- 0.580034 2 3 cbr 210 ------- 0 1.0 3.0 100 105
+ 0.5825 1 2 cbr 210 ------- 0 1.0 3.0 102 107
- 0.5825 1 2 cbr 210 ------- 0 1.0 3.0 102 107
r 0.583784 1 2 cbr 210 ------- 0 1.0 3.0 101 106
+ 0.583784 2 3 cbr 210 ------- 0 1.0 3.0 101 106
- 0.583784 2 3 cbr 210 ------- 0 1.0 3.0 101 106
+ 0.58625 1 2 cbr 210 ------- 0 1.0 3.0 103 108
- 0.58625 1 2 cbr 210 ------- 0 1.0 3.0 103 108
r 0.587534 1 2 cbr 210 ------- 0 1.0 3.0 102 107
+ 0.587534 2 3 cbr 210 ------- 0 1.0 3.0 102 107
- 0.587534 2 3 cbr 210 ------- 0 1.0 3.0 102 107
+ 0.59 1 2 cbr 210 ------- 0 1.0 3.0 104 109
- 0.59 1 2 cbr 210 ------- 0 1.0 3.0 104 109
r 0.591284 1 2 cbr 210 ------- 0 1.0 3.0 103 108
+ 0.591284 2 3 cbr 210 ------- 0 1.0 3.0 103 108
- 0.591284 2 3 cbr 210 ------- 0 1.0 3.0 103 108
+ 0.59375 1 2 cbr 210 ------- 0 1.0 3.0 105 110
- 0.59375 1 2 cbr 210 ------- 0 1.0 3.0 105 110
r 0.595034 1 2 cbr 210 ------- 0 1.0 3.0 104 109
+ 0.595034 2 3 cbr 210 ------- 0 1.0 3.0 104 109
- 0.595034 2 3 cbr 210 ------- 0 1.0 3.0 104 109
+ 0.5975 1 2 cbr 210 ------- 0 1.0 3.0 106 111
- 0.5975 1 2 cbr 210 ------- 0 1.0 3.0 106 111
r 0.598784 1 2 cbr 210 ------- 0 1.0 3.0 105 110
+ 0.598784 2 3 cbr 210 ------- 0 1.0 3.0 105 110
- 0.598784 2 3 cbr 210 ------- 0 1.0 3.0 105 110
+ 0.6 0 2 cbr 1000 ------- 0 0.0 3.0 5 112
- 0.6 0 2 cbr 1000 ------- 0 0.0 3.0 5 112
+ 0.6 0 2 cbr 1000 ------- 0 0.0 3.0 6 113
+ 0.6 0 2 cbr 1000 ------- 0 0.0 3.0 7 114
+ 0.6 0 2 cbr 1000 ------- 0 0.0 3.0 8 115
+ 0.6 0 2 cbr 1000 ------- 0 0.0 3.0 9 116
d 0.6 0 2 cbr 1000 ------- 0 0.0 3.0 9 116
- 0.6004 0 2 cbr 1000 ------- 0 0.0 3.0 6 113
- 0.6008 0 2 cbr 1000 ------- 0 0.0 3.0 7 114
- 0.6012 0 2 cbr 1000 ------- 0 0.0 3.0 8 115
+ 0.60125 1 2 cbr 210 ------- 0 1.0 3.0 107 117
- 0.60125 1 2 cbr 210 ------- 0 1.0 3.0 107 117
r 0.602534 1 2 cbr 210 ------- 0 1.0 3.0 106 111
+ 0.602534 2 3 cbr 210 ------- 0 1.0 3.0 106 111
- 0.602534 2 3 cbr 210 ------- 0 1.0 3.0 106 111
+ 0.605 1 2 cbr 210 ------- 0 1.0 3.0 108 118
- 0.605 1 2 cbr 210 ------- 0 1.0 3.0 108 118
r 0.606284 1 2 cbr 210 ------- 0 1.0 3.0 107 117
+ 0.606284 2 3 cbr 210 ------- 0 1.0 3.0 107 117
- 0.606284 2 3 cbr 210 ------- 0 1.0 3.0 107 117
+ 0.60875 1 2 cbr 210 ------- 0 1.0 3.0 109 119
- 0.60875 1 2 cbr 210 ------- 0 1.0 3.0 109 119
r 0.610034 1 2 cbr 210 ------- 0 1.0 3.0 108 118
+ 0.610034 2 3 cbr 210 ------- 0 1.0 3.0 108 118
- 0.610034 2 3 cbr 210 ------- 0 1.0 3.0 108 118
r 0.6104 0 2 cbr 1000 ------- 0 0.0 3.0 5 112
+ 0.6104 2 3 cbr 1000 ------- 0 0.0 3.0 5 112
- 0.6104 2 3 cbr 1000 ------- 0 0.0 3.0 5 112
r 0.6108 0 2 cbr 1000 ------- 0 0.0 3.0 6 113
+ 0.6108 2 3 cbr 1000 ------- 0 0.0 3.0 6 113
r 0.6112 0 2 cbr 1000 ------- 0 0.0 3.0 7 114
+ 0.6112 2 3 cbr 1000 ------- 0 0.0 3.0 7 114
- 0.6112 2 3 cbr 1000 ------- 0 0.0 3.0 6 113
r 0.6116 0 2 cbr 1000 ------- 0 0.0 3.0 8 115
+ 0.6116 2 3 cbr 1000 ------- 0 0.0 3.0 8 115
- 0.612 2 3 cbr 1000 ------- 0 0.0 3.0 7 114
+ 0.6125 1 2 cbr 210 ------- 0 1.0 3.0 110 120
- 0.6125 1 2 cbr 210 ------- 0 1.0 3.0 110 120
- 0.6128 2 3 cbr 1000 ------- 0 0.0 3.0 8 115
r 0.613784 1 2 cbr 210 ------- 0 1.0 3.0 109 119
+ 0.613784 2 3 cbr 210 ------- 0 1.0 3.0 109 119
- 0.613784 2 3 cbr 210 ------- 0 1.0 3.0 109 119
+ 0.61625 1 2 cbr 210 ------- 0 1.0 3.0 111 121
- 0.61625 1 2 cbr 210 ------- 0 1.0 3.0 111 121
r 0.617534 1 2 cbr 210 ------- 0 1.0 3.0 110 120
+ 0.617534 2 3 cbr 210 ------- 0 1.0 3.0 110 120
- 0.617534 2 3 cbr 210 ------- 0 1.0 3.0 110 120
+ 0.62 1 2 cbr 210 ------- 0 1.0 3.0 112 122
- 0.62 1 2 cbr 210 ------- 0 1.0 3.0 112 122
r 0.621284 1 2 cbr 210 ------- 0 1.0 3.0 111 121
+ 0.621284 2 3 cbr 210 ------- 0 1.0 3.0 111 121
- 0.621284 2 3 cbr 210 ------- 0 1.0 3.0 111 121
+ 0.62375 1 2 cbr 210 ------- 0 1.0 3.0 113 123
- 0.62375 1 2 cbr 210 ------- 0 1.0 3.0 113 123
r 0.625034 1 2 cbr 210 ------- 0 1.0 3.0 112 122
+ 0.625034 2 3 cbr 210 ------- 0 1.0 3.0 112 122
- 0.625034 2 3 cbr 210 ------- 0 1.0 3.0 112 122
+ 0.6275 1 2 cbr 210 ------- 0 1.0 3.0 114 124
- 0.6275 1 2 cbr 210 ------- 0 1.0 3.0 114 124
r 0.628784 1 2 cbr 210 ------- 0 1.0 3.0 113 123
+ 0.628784 2 3 cbr 210 ------- 0 1.0 3.0 113 123
- 0.628784 2 3 cbr 210 ------- 0 1.0 3.0 113 123
+ 0.63125 1 2 cbr 210 ------- 0 1.0 3.0 115 125
- 0.63125 1 2 cbr 210 ------- 0 1.0 3.0 115 125
r 0.632534 1 2 cbr 210 ------- 0 1.0 3.0 114 124
+ 0.632534 2 3 cbr 210 ------- 0 1.0 3.0 114 124
- 0.632534 2 3 cbr 210 ------- 0 1.0 3.0 114 124
+ 0.635 1 2 cbr 210 ------- 0 1.0 3.0 116 126
- 0.635 1 2 cbr 210 ------- 0 1.0 3.0 116 126
r 0.636284 1 2 cbr 210 ------- 0 1.0 3.0 115 125
+ 0.636284 2 3 cbr 210 ------- 0 1.0 3.0 115 125
- 0.636284 2 3 cbr 210 ------- 0 1.0 3.0 115 125
+ 0.63875 1 2 cbr 210 ------- 0 1.0 3.0 117 127
- 0.63875 1 2 cbr 210 ------- 0 1.0 3.0 117 127
r 0.640034 1 2 cbr 210 ------- 0 1.0 3.0 116 126
+ 0.640034 2 3 cbr 210 ------- 0 1.0 3.0 116 126
- 0.640034 2 3 cbr 210 ------- 0 1.0 3.0 116 126
+ 0.6425 1 2 cbr 210 ------- 0 1.0 3.0 118 128
- 0.6425 1 2 cbr 210 ------- 0 1.0 3.0 118 128
r 0.643784 1 2 cbr 210 ------- 0 1.0 3.0 117 127