+ 0.1 0 2 cbr 500 ------- 0 0.0 3.0 0 0
- 0.1 0 2 cbr 500 ------- 0 0.0 3.0 0 0
+ 0.105 0 2 cbr 500 ------- 0 0.0 3.0 1 1
- 0.105 0 2 cbr 500 ------- 0 0.0 3.0 1 1
+ 0.11 0 2 cbr 500 ------- 0 0.0 3.0 2 2
- 0.11 0 2 cbr 500 ------- 0 0.0 3.0 2 2
r 0.1102 0 2 cbr 500 ------- 0 0.0 3.0 0 0
+ 0.1102 2 3 cbr 500 ------- 0 0.0 3.0 0 0
- 0.1102 2 3 cbr 500 ------- 0 0.0 3.0 0 0
+ 0.115 0 2 cbr 500 ------- 0 0.0 3.0 3 3
- 0.115 0 2 cbr 500 ------- 0 0.0 3.0 3 3
r 0.1152 0 2 cbr 500 ------- 0 0.0 3.0 1 1
+ 0.1152 2 3 cbr 500 ------- 0 0.0 3.0 1 1
- 0.1152 2 3 cbr 500 ------- 0 0.0 3.0 1 1
+ 0.12 0 2 cbr 500 ------- 0 0.0 3.0 4 4
- 0.12 0 2 cbr 500 ------- 0 0.0 3.0 4 4
r 0.1202 0 2 cbr 500 ------- 0 0.0 3.0 2 2
+ 0.1202 2 3 cbr 500 ------- 0 0.0 3.0 2 2
- 0.1202 2 3 cbr 500 ------- 0 0.0 3.0 2 2
+ 0.125 0 2 cbr 500 ------- 0 0.0 3.0 5 5
- 0.125 0 2 cbr 500 ------- 0 0.0 3.0 5 5
r 0.1252 0 2 cbr 500 ------- 0 0.0 3.0 3 3
+ 0.1252 2 3 cbr 500 ------- 0 0.0 3.0 3 3
- 0.1252 2 3 cbr 500 ------- 0 0.0 3.0 3 3
+ 0.13 0 2 cbr 500 ------- 0 0.0 3.0 6 6
- 0.13 0 2 cbr 500 ------- 0 0.0 3.0 6 6
r 0.1302 0 2 cbr 500 ------- 0 0.0 3.0 4 4
+ 0.1302 2 3 cbr 500 ------- 0 0.0 3.0 4 4
- 0.1302 2 3 cbr 500 ------- 0 0.0 3.0 4 4
+ 0.135 0 2 cbr 500 ------- 0 0.0 3.0 7 7
- 0.135 0 2 cbr 500 ------- 0 0.0 3.0 7 7
r 0.1352 0 2 cbr 500 ------- 0 0.0 3.0 5 5
+ 0.1352 2 3 cbr 500 ------- 0 0.0 3.0 5 5
- 0.1352 2 3 cbr 500 ------- 0 0.0 3.0 5 5
+ 0.14 0 2 cbr 500 ------- 0 0.0 3.0 8 8
- 0.14 0 2 cbr 500 ------- 0 0.0 3.0 8 8
r 0.1402 0 2 cbr 500 ------- 0 0.0 3.0 6 6
+ 0.1402 2 3 cbr 500 ------- 0 0.0 3.0 6 6
- 0.1402 2 3 cbr 500 ------- 0 0.0 3.0 6 6
+ 0.145 0 2 cbr 500 ------- 0 0.0 3.0 9 9
- 0.145 0 2 cbr 500 ------- 0 0.0 3.0 9 9
r 0.1452 0 2 cbr 500 ------- 0 0.0 3.0 7 7
+ 0.1452 2 3 cbr 500 ------- 0 0.0 3.0 7 7
- 0.1452 2 3 cbr 500 ------- 0 0.0 3.0 7 7
+ 0.15 0 2 cbr 500 ------- 0 0.0 3.0 10 10
- 0.15 0 2 cbr 500 ------- 0 0.0 3.0 10 10
r 0.1502 0 2 cbr 500 ------- 0 0.0 3.0 8 8
+ 0.1502 2 3 cbr 500 ------- 0 0.0 3.0 8 8
- 0.1502 2 3 cbr 500 ------- 0 0.0 3.0 8 8
+ 0.155 0 2 cbr 500 ------- 0 0.0 3.0 11 11
- 0.155 0 2 cbr 500 ------- 0 0.0 3.0 11 11
r 0.1552 0 2 cbr 500 ------- 0 0.0 3.0 9 9
+ 0.1552 2 3 cbr 500 ------- 0 0.0 3.0 9 9
- 0.1552 2 3 cbr 500 ------- 0 0.0 3.0 9 9
+ 0.16 0 2 cbr 500 ------- 0 0.0 3.0 12 12
- 0.16 0 2 cbr 500 ------- 0 0.0 3.0 12 12
r 0.1602 0 2 cbr 500 ------- 0 0.0 3.0 10 10
+ 0.1602 2 3 cbr 500 ------- 0 0.0 3.0 10 10
- 0.1602 2 3 cbr 500 ------- 0 0.0 3.0 10 10
+ 0.165 0 2 cbr 500 ------- 0 0.0 3.0 13 13
- 0.165 0 2 cbr 500 ------- 0 0.0 3.0 13 13
r 0.1652 0 2 cbr 500 ------- 0 0.0 3.0 11 11
+ 0.1652 2 3 cbr 500 ------- 0 0.0 3.0 11 11
- 0.1652 2 3 cbr 500 ------- 0 0.0 3.0 11 11
+ 0.17 0 2 cbr 500 ------- 0 0.0 3.0 14 14
- 0.17 0 2 cbr 500 ------- 0 0.0 3.0 14 14
r 0.1702 0 2 cbr 500 ------- 0 0.0 3.0 12 12
+ 0.1702 2 3 cbr 500 ------- 0 0.0 3.0 12 12
- 0.1702 2 3 cbr 500 ------- 0 0.0 3.0 12 12
+ 0.175 0 2 cbr 500 ------- 0 0.0 3.0 15 15
- 0.175 0 2 cbr 500 ------- 0 0.0 3.0 15 15
r 0.1752 0 2 cbr 500 ------- 0 0.0 3.0 13 13
+ 0.1752 2 3 cbr 500 ------- 0 0.0 3.0 13 13
- 0.1752 2 3 cbr 500 ------- 0 0.0 3.0 13 13
+ 0.18 0 2 cbr 500 ------- 0 0.0 3.0 16 16
- 0.18 0 2 cbr 500 ------- 0 0.0 3.0 16 16
r 0.1802 0 2 cbr 500 ------- 0 0.0 3.0 14 14
+ 0.1802 2 3 cbr 500 ------- 0 0.0 3.0 14 14
- 0.1802 2 3 cbr 500 ------- 0 0.0 3.0 14 14
+ 0.185 0 2 cbr 500 ------- 0 0.0 3.0 17 17
- 0.185 0 2 cbr 500 ------- 0 0.0 3.0 17 17
r 0.1852 0 2 cbr 500 ------- 0 0.0 3.0 15 15
+ 0.1852 2 3 cbr 500 ------- 0 0.0 3.0 15 15
- 0.1852 2 3 cbr 500 ------- 0 0.0 3.0 15 15
+ 0.19 0 2 cbr 500 ------- 0 0.0 3.0 18 18
- 0.19 0 2 cbr 500 ------- 0 0.0 3.0 18 18
r 0.1902 0 2 cbr 500 ------- 0 0.0 3.0 16 16
+ 0.1902 2 3 cbr 500 ------- 0 0.0 3.0 16 16
- 0.1902 2 3 cbr 500 ------- 0 0.0 3.0 16 16
+ 0.195 0 2 cbr 500 ------- 0 0.0 3.0 19 19
- 0.195 0 2 cbr 500 ------- 0 0.0 3.0 19 19
r 0.1952 0 2 cbr 500 ------- 0 0.0 3.0 17 17
+ 0.1952 2 3 cbr 500 ------- 0 0.0 3.0 17 17
- 0.1952 2 3 cbr 500 ------- 0 0.0 3.0 17 17
+ 0.2 1 2 cbr 210 ------- 0 1.0 3.0 0 20
- 0.2 1 2 cbr 210 ------- 0 1.0 3.0 0 20
+ 0.2 0 2 cbr 500 ------- 0 0.0 3.0 20 21
- 0.2 0 2 cbr 500 ------- 0 0.0 3.0 20 21
r 0.2002 0 2 cbr 500 ------- 0 0.0 3.0 18 18
+ 0.2002 2 3 cbr 500 ------- 0 0.0 3.0 18 18
- 0.2002 2 3 cbr 500 ------- 0 0.0 3.0 18 18
+ 0.20375 1 2 cbr 210 ------- 0 1.0 3.0 1 22
- 0.20375 1 2 cbr 210 ------- 0 1.0 3.0 1 22
+ 0.205 0 2 cbr 500 ------- 0 0.0 3.0 21 23
- 0.205 0 2 cbr 500 ------- 0 0.0 3.0 21 23
r 0.205034 1 2 cbr 210 ------- 0 1.0 3.0 0 20
+ 0.205034 2 3 cbr 210 ------- 0 1.0 3.0 0 20
- 0.205034 2 3 cbr 210 ------- 0 1.0 3.0 0 20
r 0.2052 0 2 cbr 500 ------- 0 0.0 3.0 19 19
+ 0.2052 2 3 cbr 500 ------- 0 0.0 3.0 19 19
- 0.205202 2 3 cbr 500 ------- 0 0.0 3.0 19 19
+ 0.2075 1 2 cbr 210 ------- 0 1.0 3.0 2 24
- 0.2075 1 2 cbr 210 ------- 0 1.0 3.0 2 24
r 0.208784 1 2 cbr 210 ------- 0 1.0 3.0 1 22
+ 0.208784 2 3 cbr 210 ------- 0 1.0 3.0 1 22
- 0.208784 2 3 cbr 210 ------- 0 1.0 3.0 1 22
+ 0.21 0 2 cbr 500 ------- 0 0.0 3.0 22 25
- 0.21 0 2 cbr 500 ------- 0 0.0 3.0 22 25
r 0.2102 0 2 cbr 500 ------- 0 0.0 3.0 20 21
+ 0.2102 2 3 cbr 500 ------- 0 0.0 3.0 20 21
- 0.2102 2 3 cbr 500 ------- 0 0.0 3.0 20 21
+ 0.21125 1 2 cbr 210 ------- 0 1.0 3.0 3 26
- 0.21125 1 2 cbr 210 ------- 0 1.0 3.0 3 26
r 0.212534 1 2 cbr 210 ------- 0 1.0 3.0 2 24
+ 0.212534 2 3 cbr 210 ------- 0 1.0 3.0 2 24
- 0.212534 2 3 cbr 210 ------- 0 1.0 3.0 2 24
+ 0.215 1 2 cbr 210 ------- 0 1.0 3.0 4 27
- 0.215 1 2 cbr 210 ------- 0 1.0 3.0 4 27
+ 0.215 0 2 cbr 500 ------- 0 0.0 3.0 23 28
- 0.215 0 2 cbr 500 ------- 0 0.0 3.0 23 28
r 0.2152 0 2 cbr 500 ------- 0 0.0 3.0 21 23
+ 0.2152 2 3 cbr 500 ------- 0 0.0 3.0 21 23
- 0.2152 2 3 cbr 500 ------- 0 0.0 3.0 21 23
r 0.216284 1 2 cbr 210 ------- 0 1.0 3.0 3 26
+ 0.216284 2 3 cbr 210 ------- 0 1.0 3.0 3 26
- 0.216284 2 3 cbr 210 ------- 0 1.0 3.0 3 26
+ 0.21875 1 2 cbr 210 ------- 0 1.0 3.0 5 29
- 0.21875 1 2 cbr 210 ------- 0 1.0 3.0 5 29
+ 0.22 0 2 cbr 500 ------- 0 0.0 3.0 24 30
- 0.22 0 2 cbr 500 ------- 0 0.0 3.0 24 30
r 0.220034 1 2 cbr 210 ------- 0 1.0 3.0 4 27
+ 0.220034 2 3 cbr 210 ------- 0 1.0 3.0 4 27
- 0.220034 2 3 cbr 210 ------- 0 1.0 3.0 4 27
r 0.2202 0 2 cbr 500 ------- 0 0.0 3.0 22 25
+ 0.2202 2 3 cbr 500 ------- 0 0.0 3.0 22 25
- 0.220202 2 3 cbr 500 ------- 0 0.0 3.0 22 25
+ 0.2225 1 2 cbr 210 ------- 0 1.0 3.0 6 31
- 0.2225 1 2 cbr 210 ------- 0 1.0 3.0 6 31
r 0.223784 1 2 cbr 210 ------- 0 1.0 3.0 5 29
+ 0.223784 2 3 cbr 210 ------- 0 1.0 3.0 5 29
- 0.223784 2 3 cbr 210 ------- 0 1.0 3.0 5 29
+ 0.225 0 2 cbr 500 ------- 0 0.0 3.0 25 32
- 0.225 0 2 cbr 500 ------- 0 0.0 3.0 25 32
r 0.2252 0 2 cbr 500 ------- 0 0.0 3.0 23 28
+ 0.2252 2 3 cbr 500 ------- 0 0.0 3.0 23 28
- 0.2252 2 3 cbr 500 ------- 0 0.0 3.0 23 28
+ 0.22625 1 2 cbr 210 ------- 0 1.0 3.0 7 33
- 0.22625 1 2 cbr 210 ------- 0 1.0 3.0 7 33
r 0.227534 1 2 cbr 210 ------- 0 1.0 3.0 6 31
+ 0.227534 2 3 cbr 210 ------- 0 1.0 3.0 6 31
- 0.227534 2 3 cbr 210 ------- 0 1.0 3.0 6 31
+ 0.23 1 2 cbr 210 ------- 0 1.0 3.0 8 34
- 0.23 1 2 cbr 210 ------- 0 1.0 3.0 8 34
+ 0.23 0 2 cbr 500 ------- 0 0.0 3.0 26 35
- 0.23 0 2 cbr 500 ------- 0 0.0 3.0 26 35
r 0.2302 0 2 cbr 500 ------- 0 0.0 3.0 24 30
+ 0.2302 2 3 cbr 500 ------- 0 0.0 3.0 24 30
- 0.2302 2 3 cbr 500 ------- 0 0.0 3.0 24 30
r 0.231284 1 2 cbr 210 ------- 0 1.0 3.0 7 33
+ 0.231284 2 3 cbr 210 ------- 0 1.0 3.0 7 33
- 0.231284 2 3 cbr 210 ------- 0 1.0 3.0 7 33
+ 0.23375 1 2 cbr 210 ------- 0 1.0 3.0 9 36
- 0.23375 1 2 cbr 210 ------- 0 1.0 3.0 9 36
+ 0.235 0 2 cbr 500 ------- 0 0.0 3.0 27 37
- 0.235 0 2 cbr 500 ------- 0 0.0 3.0 27 37
r 0.235034 1 2 cbr 210 ------- 0 1.0 3.0 8 34
+ 0.235034 2 3 cbr 210 ------- 0 1.0 3.0 8 34
- 0.235034 2 3 cbr 210 ------- 0 1.0 3.0 8 34
r 0.2352 0 2 cbr 500 ------- 0 0.0 3.0 25 32
+ 0.2352 2 3 cbr 500 ------- 0 0.0 3.0 25 32
- 0.235202 2 3 cbr 500 ------- 0 0.0 3.0 25 32
+ 0.2375 1 2 cbr 210 ------- 0 1.0 3.0 10 38
- 0.2375 1 2 cbr 210 ------- 0 1.0 3.0 10 38
r 0.238784 1 2 cbr 210 ------- 0 1.0 3.0 9 36
+ 0.238784 2 3 cbr 210 ------- 0 1.0 3.0 9 36
- 0.238784 2 3 cbr 210 ------- 0 1.0 3.0 9 36
+ 0.24 0 2 cbr 500 ------- 0 0.0 3.0 28 39
- 0.24 0 2 cbr 500 ------- 0 0.0 3.0 28 39
r 0.2402 0 2 cbr 500 ------- 0 0.0 3.0 26 35
+ 0.2402 2 3 cbr 500 ------- 0 0.0 3.0 26 35
- 0.2402 2 3 cbr 500 ------- 0 0.0 3.0 26 35
+ 0.24125 1 2 cbr 210 ------- 0 1.0 3.0 11 40
- 0.24125 1 2 cbr 210 ------- 0 1.0 3.0 11 40
r 0.242534 1 2 cbr 210 ------- 0 1.0 3.0 10 38
+ 0.242534 2 3 cbr 210 ------- 0 1.0 3.0 10 38
- 0.242534 2 3 cbr 210 ------- 0 1.0 3.0 10 38
+ 0.245 1 2 cbr 210 ------- 0 1.0 3.0 12 41
- 0.245 1 2 cbr 210 ------- 0 1.0 3.0 12 41
+ 0.245 0 2 cbr 500 ------- 0 0.0 3.0 29 42
- 0.245 0 2 cbr 500 ------- 0 0.0 3.0 29 42
r 0.2452 0 2 cbr 500 ------- 0 0.0 3.0 27 37
+ 0.2452 2 3 cbr 500 ------- 0 0.0 3.0 27 37
- 0.2452 2 3 cbr 500 ------- 0 0.0 3.0 27 37
r 0.246284 1 2 cbr 210 ------- 0 1.0 3.0 11 40
+ 0.246284 2 3 cbr 210 ------- 0 1.0 3.0 11 40
- 0.246284 2 3 cbr 210 ------- 0 1.0 3.0 11 40
+ 0.24875 1 2 cbr 210 ------- 0 1.0 3.0 13 43
- 0.24875 1 2 cbr 210 ------- 0 1.0 3.0 13 43
+ 0.25 0 2 cbr 500 ------- 0 0.0 3.0 30 44
- 0.25 0 2 cbr 500 ------- 0 0.0 3.0 30 44
r 0.250034 1 2 cbr 210 ------- 0 1.0 3.0 12 41
+ 0.250034 2 3 cbr 210 ------- 0 1.0 3.0 12 41
- 0.250034 2 3 cbr 210 ------- 0 1.0 3.0 12 41
r 0.2502 0 2 cbr 500 ------- 0 0.0 3.0 28 39
+ 0.2502 2 3 cbr 500 ------- 0 0.0 3.0 28 39
- 0.250202 2 3 cbr 500 ------- 0 0.0 3.0 28 39
+ 0.2525 1 2 cbr 210 ------- 0 1.0 3.0 14 45
- 0.2525 1 2 cbr 210 ------- 0 1.0 3.0 14 45
r 0.253784 1 2 cbr 210 ------- 0 1.0 3.0 13 43
+ 0.253784 2 3 cbr 210 ------- 0 1.0 3.0 13 43
- 0.253784 2 3 cbr 210 ------- 0 1.0 3.0 13 43
+ 0.255 0 2 cbr 500 ------- 0 0.0 3.0 31 46
- 0.255 0 2 cbr 500 ------- 0 0.0 3.0 31 46
r 0.2552 0 2 cbr 500 ------- 0 0.0 3.0 29 42
+ 0.2552 2 3 cbr 500 ------- 0 0.0 3.0 29 42
- 0.2552 2 3 cbr 500 ------- 0 0.0 3.0 29 42
+ 0.25625 1 2 cbr 210 ------- 0 1.0 3.0 15 47
- 0.25625 1 2 cbr 210 ------- 0 1.0 3.0 15 47
r 0.257534 1 2 cbr 210 ------- 0 1.0 3.0 14 45
+ 0.257534 2 3 cbr 210 ------- 0 1.0 3.0 14 45
- 0.257534 2 3 cbr 210 ------- 0 1.0 3.0 14 45
+ 0.26 1 2 cbr 210 ------- 0 1.0 3.0 16 48
- 0.26 1 2 cbr 210 ------- 0 1.0 3.0 16 48
+ 0.26 0 2 cbr 500 ------- 0 0.0 3.0 32 49
- 0.26 0 2 cbr 500 ------- 0 0.0 3.0 32 49
r 0.2602 0 2 cbr 500 ------- 0 0.0 3.0 30 44
+ 0.2602 2 3 cbr 500 ------- 0 0.0 3.0 30 44
- 0.2602 2 3 cbr 500 ------- 0 0.0 3.0 30 44
r 0.261284 1 2 cbr 210 ------- 0 1.0 3.0 15 47
+ 0.261284 2 3 cbr 210 ------- 0 1.0 3.0 15 47
- 0.261284 2 3 cbr 210 ------- 0 1.0 3.0 15 47
+ 0.26375 1 2 cbr 210 ------- 0 1.0 3.0 17 50
- 0.26375 1 2 cbr 210 ------- 0 1.0 3.0 17 50
+ 0.265 0 2 cbr 500 ------- 0 0.0 3.0 33 51
- 0.265 0 2 cbr 500 ------- 0 0.0 3.0 33 51
r 0.265034 1 2 cbr 210 ------- 0 1.0 3.0 16 48
+ 0.265034 2 3 cbr 210 ------- 0 1.0 3.0 16 48
- 0.265034 2 3 cbr 210 ------- 0 1.0 3.0 16 48
r 0.2652 0 2 cbr 500 ------- 0 0.0 3.0 31 46
+ 0.2652 2 3 cbr 500 ------- 0 0.0 3.0 31 46
- 0.265202 2 3 cbr 500 ------- 0 0.0 3.0 31 46
+ 0.2675 1 2 cbr 210 ------- 0 1.0 3.0 18 52
- 0.2675 1 2 cbr 210 ------- 0 1.0 3.0 18 52
r 0.268784 1 2 cbr 210 ------- 0 1.0 3.0 17 50
+ 0.268784 2 3 cbr 210 ------- 0 1.0 3.0 17 50
- 0.268784 2 3 cbr 210 ------- 0 1.0 3.0 17 50
+ 0.27 0 2 cbr 500 ------- 0 0.0 3.0 34 53
- 0.27 0 2 cbr 500 ------- 0 0.0 3.0 34 53
r 0.2702 0 2 cbr 500 ------- 0 0.0 3.0 32 49
+ 0.2702 2 3 cbr 500 ------- 0 0.0 3.0 32 49
- 0.2702 2 3 cbr 500 ------- 0 0.0 3.0 32 49
+ 0.27125 1 2 cbr 210 ------- 0 1.0 3.0 19 54
- 0.27125 1 2 cbr 210 ------- 0 1.0 3.0 19 54
r 0.272534 1 2 cbr 210 ------- 0 1.0 3.0 18 52
+ 0.272534 2 3 cbr 210 ------- 0 1.0 3.0 18 52
- 0.272534 2 3 cbr 210 ------- 0 1.0 3.0 18 52
+ 0.275 1 2 cbr 210 ------- 0 1.0 3.0 20 55
- 0.275 1 2 cbr 210 ------- 0 1.0 3.0 20 55
+ 0.275 0 2 cbr 500 ------- 0 0.0 3.0 35 56
- 0.275 0 2 cbr 500 ------- 0 0.0 3.0 35 56
r 0.2752 0 2 cbr 500 ------- 0 0.0 3.0 33 51
+ 0.2752 2 3 cbr 500 ------- 0 0.0 3.0 33 51
- 0.2752 2 3 cbr 500 ------- 0 0.0 3.0 33 51
r 0.276284 1 2 cbr 210 ------- 0 1.0 3.0 19 54
+ 0.276284 2 3 cbr 210 ------- 0 1.0 3.0 19 54
- 0.276284 2 3 cbr 210 ------- 0 1.0 3.0 19 54
+ 0.27875 1 2 cbr 210 ------- 0 1.0 3.0 21 57
- 0.27875 1 2 cbr 210 ------- 0 1.0 3.0 21 57
+ 0.28 0 2 cbr 500 ------- 0 0.0 3.0 36 58
- 0.28 0 2 cbr 500 ------- 0 0.0 3.0 36 58
r 0.280034 1 2 cbr 210 ------- 0 1.0 3.0 20 55
+ 0.280034 2 3 cbr 210 ------- 0 1.0 3.0 20 55
- 0.280034 2 3 cbr 210 ------- 0 1.0 3.0 20 55
r 0.2802 0 2 cbr 500 ------- 0 0.0 3.0 34 53
+ 0.2802 2 3 cbr 500 ------- 0 0.0 3.0 34 53
- 0.280202 2 3 cbr 500 ------- 0 0.0 3.0 34 53
+ 0.2825 1 2 cbr 210 ------- 0 1.0 3.0 22 59
- 0.2825 1 2 cbr 210 ------- 0 1.0 3.0 22 59
r 0.283784 1 2 cbr 210 ------- 0 1.0 3.0 21 57
+ 0.283784 2 3 cbr 210 ------- 0 1.0 3.0 21 57
- 0.283784 2 3 cbr 210 ------- 0 1.0 3.0 21 57
+ 0.285 0 2 cbr 500 ------- 0 0.0 3.0 37 60
- 0.285 0 2 cbr 500 ------- 0 0.0 3.0 37 60
r 0.2852 0 2 cbr 500 ------- 0 0.0 3.0 35 56
+ 0.2852 2 3 cbr 500 ------- 0 0.0 3.0 35 56
- 0.2852 2 3 cbr 500 ------- 0 0.0 3.0 35 56
+ 0.28625 1 2 cbr 210 ------- 0 1.0 3.0 23 61
- 0.28625 1 2 cbr 210 ------- 0 1.0 3.0 23 61
r 0.287534 1 2 cbr 210 ------- 0 1.0 3.0 22 59
+ 0.287534 2 3 cbr 210 ------- 0 1.0 3.0 22 59
- 0.287534 2 3 cbr 210 ------- 0 1.0 3.0 22 59
+ 0.29 1 2 cbr 210 ------- 0 1.0 3.0 24 62
- 0.29 1 2 cbr 210 ------- 0 1.0 3.0 24 62
+ 0.29 0 2 cbr 500 ------- 0 0.0 3.0 38 63
- 0.29 0 2 cbr 500 ------- 0 0.0 3.0 38 63
r 0.2902 0 2 cbr 500 ------- 0 0.0 3.0 36 58
+ 0.2902 2 3 cbr 500 ------- 0 0.0 3.0 36 58
- 0.2902 2 3 cbr 500 ------- 0 0.0 3.0 36 58
r 0.291284 1 2 cbr 210 ------- 0 1.0 3.0 23 61
+ 0.291284 2 3 cbr 210 ------- 0 1.0 3.0 23 61
- 0.291284 2 3 cbr 210 ------- 0 1.0 3.0 23 61
+ 0.29375 1 2 cbr 210 ------- 0 1.0 3.0 25 64
- 0.29375 1 2 cbr 210 ------- 0 1.0 3.0 25 64
+ 0.295 0 2 cbr 500 ------- 0 0.0 3.0 39 65
- 0.295 0 2 cbr 500 ------- 0 0.0 3.0 39 65
r 0.295034 1 2 cbr 210 ------- 0 1.0 3.0 24 62
+ 0.295034 2 3 cbr 210 ------- 0 1.0 3.0 24 62
- 0.295034 2 3 cbr 210 ------- 0 1.0 3.0 24 62
r 0.2952 0 2 cbr 500 ------- 0 0.0 3.0 37 60
+ 0.2952 2 3 cbr 500 ------- 0 0.0 3.0 37 60
- 0.295202 2 3 cbr 500 ------- 0 0.0 3.0 37 60
+ 0.2975 1 2 cbr 210 ------- 0 1.0 3.0 26 66
- 0.2975 1 2 cbr 210 ------- 0 1.0 3.0 26 66
r 0.298784 1 2 cbr 210 ------- 0 1.0 3.0 25 64
+ 0.298784 2 3 cbr 210 ------- 0 1.0 3.0 25 64
- 0.298784 2 3 cbr 210 ------- 0 1.0 3.0 25 64
+ 0.3 0 2 cbr 500 ------- 0 0.0 3.0 40 67
- 0.3 0 2 cbr 500 ------- 0 0.0 3.0 40 67
r 0.3002 0 2 cbr 500 ------- 0 0.0 3.0 38 63
+ 0.3002 2 3 cbr 500 ------- 0 0.0 3.0 38 63
- 0.3002 2 3 cbr 500 ------- 0 0.0 3.0 38 63
+ 0.30125 1 2 cbr 210 ------- 0 1.0 3.0 27 68
- 0.30125 1 2 cbr 210 ------- 0 1.0 3.0 27 68
r 0.302534 1 2 cbr 210 ------- 0 1.0 3.0 26 66
+ 0.302534 2 3 cbr 210 ------- 0 1.0 3.0 26 66
- 0.302534 2 3 cbr 210 ------- 0 1.0 3.0 26 66
+ 0.305 1 2 cbr 210 ------- 0 1.0 3.0 28 69
- 0.305 1 2 cbr 210 ------- 0 1.0 3.0 28 69
+ 0.305 0 2 cbr 500 ------- 0 0.0 3.0 41 70
- 0.305 0 2 cbr 500 ------- 0 0.0 3.0 41 70
r 0.3052 0 2 cbr 500 ------- 0 0.0 3.0 39 65
+ 0.3052 2 3 cbr 500 ------- 0 0.0 3.0 39 65
- 0.3052 2 3 cbr 500 ------- 0 0.0 3.0 39 65
r 0.306284 1 2 cbr 210 ------- 0 1.0 3.0 27 68
+ 0.306284 2 3 cbr 210 ------- 0 1.0 3.0 27 68
- 0.306284 2 3 cbr 210 ------- 0 1.0 3.0 27 68
+ 0.30875 1 2 cbr 210 ------- 0 1.0 3.0 29 71
- 0.30875 1 2 cbr 210 ------- 0 1.0 3.0 29 71
+ 0.31 0 2 cbr 500 ------- 0 0.0 3.0 42 72
- 0.31 0 2 cbr 500 ------- 0 0.0 3.0 42 72
r 0.310034 1 2 cbr 210 ------- 0 1.0 3.0 28 69
+ 0.310034 2 3 cbr 210 ------- 0 1.0 3.0 28 69
- 0.310034 2 3 cbr 210 ------- 0 1.0 3.0 28 69
r 0.3102 0 2 cbr 500 ------- 0 0.0 3.0 40 67
+ 0.3102 2 3 cbr 500 ------- 0 0.0 3.0 40 67
- 0.310202 2 3 cbr 500 ------- 0 0.0 3.0 40 67
+ 0.3125 1 2 cbr 210 ------- 0 1.0 3.0 30 73
- 0.3125 1 2 cbr 210 ------- 0 1.0 3.0 30 73
r 0.313784 1 2 cbr 210 ------- 0 1.0 3.0 29 71
+ 0.313784 2 3 cbr 210 ------- 0 1.0 3.0 29 71
- 0.313784 2 3 cbr 210 ------- 0 1.0 3.0 29 71
+ 0.315 0 2 cbr 500 ------- 0 0.0 3.0 43 74
- 0.315 0 2 cbr 500 ------- 0 0.0 3.0 43 74
r 0.3152 0 2 cbr 500 ------- 0 0.0 3.0 41 70
+ 0.3152 2 3 cbr 500 ------- 0 0.0 3.0 41 70
- 0.3152 2 3 cbr 500 ------- 0 0.0 3.0 41 70
+ 0.31625 1 2 cbr 210 ------- 0 1.0 3.0 31 75
- 0.31625 1 2 cbr 210 ------- 0 1.0 3.0 31 75
r 0.317534 1 2 cbr 210 ------- 0 1.0 3.0 30 73
+ 0.317534 2 3 cbr 210 ------- 0 1.0 3.0 30 73
- 0.317534 2 3 cbr 210 ------- 0 1.0 3.0 30 73
+ 0.32 1 2 cbr 210 ------- 0 1.0 3.0 32 76
- 0.32 1 2 cbr 210 ------- 0 1.0 3.0 32 76
+ 0.32 0 2 cbr 500 ------- 0 0.0 3.0 44 77
- 0.32 0 2 cbr 500 ------- 0 0.0 3.0 44 77
r 0.3202 0 2 cbr 500 ------- 0 0.0 3.0 42 72
+ 0.3202 2 3 cbr 500 ------- 0 0.0 3.0 42 72
- 0.3202 2 3 cbr 500 ------- 0 0.0 3.0 42 72
r 0.321284 1 2 cbr 210 ------- 0 1.0 3.0 31 75
+ 0.321284 2 3 cbr 210 ------- 0 1.0 3.0 31 75
- 0.321284 2 3 cbr 210 ------- 0 1.0 3.0 31 75
+ 0.32375 1 2 cbr 210 ------- 0 1.0 3.0 33 78
- 0.32375 1 2 cbr 210 ------- 0 1.0 3.0 33 78
+ 0.325 0 2 cbr 500 ------- 0 0.0 3.0 45 79
- 0.325 0 2 cbr 500 ------- 0 0.0 3.0 45 79
r 0.325034 1 2 cbr 210 ------- 0 1.0 3.0 32 76
+ 0.325034 2 3 cbr 210 ------- 0 1.0 3.0 32 76
- 0.325034 2 3 cbr 210 ------- 0 1.0 3.0 32 76
r 0.3252 0 2 cbr 500 ------- 0 0.0 3.0 43 74
+ 0.3252 2 3 cbr 500 ------- 0 0.0 3.0 43 74
- 0.325202 2 3 cbr 500 ------- 0 0.0 3.0 43 74
+ 0.3275 1 2 cbr 210 ------- 0 1.0 3.0 34 80
- 0.3275 1 2 cbr 210 ------- 0 1.0 3.0 34 80
r 0.328784 1 2 cbr 210 ------- 0 1.0 3.0 33 78
+ 0.328784 2 3 cbr 210 ------- 0 1.0 3.0 33 78
- 0.328784 2 3 cbr 210 ------- 0 1.0 3.0 33 78
+ 0.33 0 2 cbr 500 ------- 0 0.0 3.0 46 81
- 0.33 0 2 cbr 500 ------- 0 0.0 3.0 46 81
r 0.3302 0 2 cbr 500 ------- 0 0.0 3.0 44 77
+ 0.3302 2 3 cbr 500 ------- 0 0.0 3.0 44 77
- 0.3302 2 3 cbr 500 ------- 0 0.0 3.0 44 77
+ 0.33125 1 2 cbr 210 ------- 0 1.0 3.0 35 82
- 0.33125 1 2 cbr 210 ------- 0 1.0 3.0 35 82
r 0.332534 1 2 cbr 210 ------- 0 1.0 3.0 34 80
+ 0.332534 2 3 cbr 210 ------- 0 1.0 3.0 34 80
- 0.332534 2 3 cbr 210 ------- 0 1.0 3.0 34 80
+ 0.335 1 2 cbr 210 ------- 0 1.0 3.0 36 83
- 0.335 1 2 cbr 210 ------- 0 1.0 3.0 36 83
+ 0.335 0 2 cbr 500 ------- 0 0.0 3.0 47 84
- 0.335 0 2 cbr 500 ------- 0 0.0 3.0 47 84
r 0.3352 0 2 cbr 500 ------- 0 0.0 3.0 45 79
+ 0.3352 2 3 cbr 500 ------- 0 0.0 3.0 45 79
- 0.3352 2 3 cbr 500 ------- 0 0.0 3.0 45 79
r 0.336284 1 2 cbr 210 ------- 0 1.0 3.0 35 82
+ 0.336284 2 3 cbr 210 ------- 0 1.0 3.0 35 82
- 0.336284 2 3 cbr 210 ------- 0 1.0 3.0 35 82
+ 0.33875 1 2 cbr 210 ------- 0 1.0 3.0 37 85
- 0.33875 1 2 cbr 210 ------- 0 1.0 3.0 37 85
+ 0.34 0 2 cbr 500 ------- 0 0.0 3.0 48 86
- 0.34 0 2 cbr 500 ------- 0 0.0 3.0 48 86
r 0.340034 1 2 cbr 210 ------- 0 1.0 3.0 36 83
+ 0.340034 2 3 cbr 210 ------- 0 1.0 3.0 36 83
- 0.340034 2 3 cbr 210 ------- 0 1.0 3.0 36 83
r 0.3402 0 2 cbr 500 ------- 0 0.0 3.0 46 81
+ 0.3402 2 3 cbr 500 ------- 0 0.0 3.0 46 81
- 0.340202 2 3 cbr 500 ------- 0 0.0 3.0 46 81
+ 0.3425 1 2 cbr 210 ------- 0 1.0 3.0 38 87
- 0.3425 1 2 cbr 210 ------- 0 1.0 3.0 38 87
r 0.343784 1 2 cbr 210 ------- 0 1.0 3.0 37 85
+ 0.343784 2 3 cbr 210 ------- 0 1.0 3.0 37 85
- 0.343784 2 3 cbr 210 ------- 0 1.0 3.0 37 85
+ 0.345 0 2 cbr 500 ------- 0 0.0 3.0 49 88
- 0.345 0 2 cbr 500 ------- 0 0.0 3.0 49 88
r 0.3452 0 2 cbr 500 ------- 0 0.0 3.0 47 84
+ 0.3452 2 3 cbr 500 ------- 0 0.0 3.0 47 84
- 0.3452 2 3 cbr 500 ------- 0 0.0 3.0 47 84
+ 0.34625 1 2 cbr 210 ------- 0 1.0 3.0 39 89
- 0.34625 1 2 cbr 210 ------- 0 1.0 3.0 39 89
r 0.347534 1 2 cbr 210 ------- 0 1.0 3.0 38 87
+ 0.347534 2 3 cbr 210 ------- 0 1.0 3.0 38 87
- 0.347534 2 3 cbr 210 ------- 0 1.0 3.0 38 87
+ 0.35 1 2 cbr 210 ------- 0 1.0 3.0 40 90
- 0.35 1 2 cbr 210 ------- 0 1.0 3.0 40 90
+ 0.35 0 2 cbr 500 ------- 0 0.0 3.0 50 91
- 0.35 0 2 cbr 500 ------- 0 0.0 3.0 50 91
r 0.3502 0 2 cbr 500 ------- 0 0.0 3.0 48 86
+ 0.3502 2 3 cbr 500 ------- 0 0.0 3.0 48 86
- 0.3502 2 3 cbr 500 ------- 0 0.0 3.0 48 86
r 0.351284 1 2 cbr 210 ------- 0 1.0 3.0 39 89
+ 0.351284 2 3 cbr 210 ------- 0 1.0 3.0 39 89
- 0.351284 2 3 cbr 210 ------- 0 1.0 3.0 39 89
+ 0.35375 1 2 cbr 210 ------- 0 1.0 3.0 41 92
- 0.35375 1 2 cbr 210 ------- 0 1.0 3.0 41 92
+ 0.355 0 2 cbr 500 ------- 0 0.0 3.0 51 93
- 0.355 0 2 cbr 500 ------- 0 0.0 3.0 51 93
r 0.355034 1 2 cbr 210 ------- 0 1.0 3.0 40 90
+ 0.355034 2 3 cbr 210 ------- 0 1.0 3.0 40 90
- 0.355034 2 3 cbr 210 ------- 0 1.0 3.0 40 90
r 0.3552 0 2 cbr 500 ------- 0 0.0 3.0 49 88
+ 0.3552 2 3 cbr 500 ------- 0 0.0 3.0 49 88
- 0.355202 2 3 cbr 500 ------- 0 0.0 3.0 49 88
+ 0.3575 1 2 cbr 210 ------- 0 1.0 3.0 42 94
- 0.3575 1 2 cbr 210 ------- 0 1.0 3.0 42 94
r 0.358784 1 2 cbr 210 ------- 0 1.0 3.0 41 92
+ 0.358784 2 3 cbr 210 ------- 0 1.0 3.0 41 92
- 0.358784 2 3 cbr 210 ------- 0 1.0 3.0 41 92
+ 0.36 0 2 cbr 500 ------- 0 0.0 3.0 52 95
- 0.36 0 2 cbr 500 ------- 0 0.0 3.0 52 95
r 0.3602 0 2 cbr 500 ------- 0 0.0 3.0 50 91
+ 0.3602 2 3 cbr 500 ------- 0 0.0 3.0 50 91
- 0.3602 2 3 cbr 500 ------- 0 0.0 3.0 50 91
+ 0.36125 1 2 cbr 210 ------- 0 1.0 3.0 43 96
- 0.36125 1 2 cbr 210 ------- 0 1.0 3.0 43 96
r 0.362534 1 2 cbr 210 ------- 0 1.0 3.0 42 94
+ 0.362534 2 3 cbr 210 ------- 0 1.0 3.0 42 94
- 0.362534 2 3 cbr 210 ------- 0 1.0 3.0 42 94
+ 0.365 1 2 cbr 210 ------- 0 1.0 3.0 44 97
- 0.365 1 2 cbr 210 ------- 0 1.0 3.0 44 97
+ 0.365 0 2 cbr 500 ------- 0 0.0 3.0 53 98
- 0.365 0 2 cbr 500 ------- 0 0.0 3.0 53 98
r 0.3652 0 2 cbr 500 ------- 0 0.0 3.0 51 93
+ 0.3652 2 3 cbr 500 ------- 0 0.0 3.0 51 93
- 0.3652 2 3 cbr 500 ------- 0 0.0 3.0 51 93
r 0.366284 1 2 cbr 210 ------- 0 1.0 3.0 43 96
+ 0.366284 2 3 cbr 210 ------- 0 1.0 3.0 43 96
- 0.366284 2 3 cbr 210 ------- 0 1.0 3.0 43 96
+ 0.36875 1 2 cbr 210 ------- 0 1.0 3.0 45 99
- 0.36875 1 2 cbr 210 ------- 0 1.0 3.0 45 99
+ 0.37 0 2 cbr 500 ------- 0 0.0 3.0 54 100
- 0.37 0 2 cbr 500 ------- 0 0.0 3.0 54 100
r 0.370034 1 2 cbr 210 ------- 0 1.0 3.0 44 97
+ 0.370034 2 3 cbr 210 ------- 0 1.0 3.0 44 97
- 0.370034 2 3 cbr 210 ------- 0 1.0 3.0 44 97
r 0.3702 0 2 cbr 500 ------- 0 0.0 3.0 52 95
+ 0.3702 2 3 cbr 500 ------- 0 0.0 3.0 52 95
- 0.370202 2 3 cbr 500 ------- 0 0.0 3.0 52 95
+ 0.3725 1 2 cbr 210 ------- 0 1.0 3.0 46 101
- 0.3725 1 2 cbr 210 ------- 0 1.0 3.0 46 101
r 0.373784 1 2 cbr 210 ------- 0 1.0 3.0 45 99
+ 0.373784 2 3 cbr 210 ------- 0 1.0 3.0 45 99
- 0.373784 2 3 cbr 210 ------- 0 1.0 3.0 45 99
+ 0.375 0 2 cbr 500 ------- 0 0.0 3.0 55 102
- 0.375 0 2 cbr 500 ------- 0 0.0 3.0 55 102
r 0.3752 0 2 cbr 500 ------- 0 0.0 3.0 53 98
+ 0.3752 2 3 cbr 500 ------- 0 0.0 3.0 53 98
- 0.3752 2 3 cbr 500 ------- 0 0.0 3.0 53 98
+ 0.37625 1 2 cbr 210 ------- 0 1.0 3.0 47 103
- 0.37625 1 2 cbr 210 ------- 0 1.0 3.0 47 103
r 0.377534 1 2 cbr 210 ------- 0 1.0 3.0 46 101
+ 0.377534 2 3 cbr 210 ------- 0 1.0 3.0 46 101
- 0.377534 2 3 cbr 210 ------- 0 1.0 3.0 46 101
+ 0.38 1 2 cbr 210 ------- 0 1.0 3.0 48 104
- 0.38 1 2 cbr 210 ------- 0 1.0 3.0 48 104
+ 0.38 0 2 cbr 500 ------- 0 0.0 3.0 56 105
- 0.38 0 2 cbr 500 ------- 0 0.0 3.0 56 105
r 0.3802 0 2 cbr 500 ------- 0 0.0 3.0 54 100
+ 0.3802 2 3 cbr 500 ------- 0 0.0 3.0 54 100
- 0.3802 2 3 cbr 500 ------- 0 0.0 3.0 54 100
r 0.381284 1 2 cbr 210 ------- 0 1.0 3.0 47 103
+ 0.381284 2 3 cbr 210 ------- 0 1.0 3.0 47 103
- 0.381284 2 3 cbr 210 ------- 0 1.0 3.0 47 103
+ 0.38375 1 2 cbr 210 ------- 0 1.0 3.0 49 106
- 0.38375 1 2 cbr 210 ------- 0 1.0 3.0 49 106
+ 0.385 0 2 cbr 500 ------- 0 0.0 3.0 57 107
- 0.385 0 2 cbr 500 ------- 0 0.0 3.0 57 107
r 0.385034 1 2 cbr 210 ------- 0 1.0 3.0 48 104
+ 0.385034 2 3 cbr 210 ------- 0 1.0 3.0 48 104
- 0.385034 2 3 cbr 210 ------- 0 1.0 3.0 48 104
r 0.3852 0 2 cbr 500 ------- 0 0.0 3.0 55 102
+ 0.3852 2 3 cbr 500 ------- 0 0.0 3.0 55 102
- 0.385202 2 3 cbr 500 ------- 0 0.0 3.0 55 102
+ 0.3875 1 2 cbr 210 ------- 0 1.0 3.0 50 108
- 0.3875 1 2 cbr 210 ------- 0 1.0 3.0 50 108
r 0.388784 1 2 cbr 210 ------- 0 1.0 3.0 49 106
+ 0.388784 2 3 cbr 210 ------- 0 1.0 3.0 49 106
- 0.388784 2 3 cbr 210 ------- 0 1.0 3.0 49 106
+ 0.39 0 2 cbr 500 ------- 0 0.0 3.0 58 109
- 0.39 0 2 cbr 500 ------- 0 0.0 3.0 58 109
r 0.3902 0 2 cbr 500 ------- 0 0.0 3.0 56 105
+ 0.3902 2 3 cbr 500 ------- 0 0.0 3.0 56 105
- 0.3902 2 3 cbr 500 ------- 0 0.0 3.0 56 105
+ 0.39125 1 2 cbr 210 ------- 0 1.0 3.0 51 110
- 0.39125 1 2 cbr 210 ------- 0 1.0 3.0 51 110
r 0.392534 1 2 cbr 210 ------- 0 1.0 3.0 50 108
+ 0.392534 2 3 cbr 210 ------- 0 1.0 3.0 50 108
- 0.392534 2 3 cbr 210 ------- 0 1.0 3.0 50 108
+ 0.395 1 2 cbr 210 ------- 0 1.0 3.0 52 111
- 0.395 1 2 cbr 210 ------- 0 1.0 3.0 52 111
+ 0.395 0 2 cbr 500 ------- 0 0.0 3.0 59 112
- 0.395 0 2 cbr 500 ------- 0 0.0 3.0 59 112
r 0.3952 0 2 cbr 500 ------- 0 0.0 3.0 57 107
+ 0.3952 2 3 cbr 500 ------- 0 0.0 3.0 57 107
- 0.3952 2 3 cbr 500 ------- 0 0.0 3.0 57 107
r 0.396284 1 2 cbr 210 ------- 0 1.0 3.0 51 110
+ 0.396284 2 3 cbr 210 ------- 0 1.0 3.0 51 110
- 0.396284 2 3 cbr 210 ------- 0 1.0 3.0 51 110
+ 0.39875 1 2 cbr 210 ------- 0 1.0 3.0 53 113
- 0.39875 1 2 cbr 210 ------- 0 1.0 3.0 53 113
+ 0.4 0 2 cbr 500 ------- 0 0.0 3.0 60 114
- 0.4 0 2 cbr 500 ------- 0 0.0 3.0 60 114
r 0.400034 1 2 cbr 210 ------- 0 1.0 3.0 52 111
+ 0.400034 2 3 cbr 210 ------- 0 1.0 3.0 52 111
- 0.400034 2 3 cbr 210 ------- 0 1.0 3.0 52 111
r 0.4002 0 2 cbr 500 ------- 0 0.0 3.0 58 109
+ 0.4002 2 3 cbr 500 ------- 0 0.0 3.0 58 109
- 0.400202 2 3 cbr 500 ------- 0 0.0 3.0 58 109
+ 0.4025 1 2 cbr 210 ------- 0 1.0 3.0 54 115
- 0.4025 1 2 cbr 210 ------- 0 1.0 3.0 54 115
r 0.403784 1 2 cbr 210 ------- 0 1.0 3.0 53 113
+ 0.403784 2 3 cbr 210 ------- 0 1.0 3.0 53 113
- 0.403784 2 3 cbr 210 ------- 0 1.0 3.0 53 113
+ 0.405 0 2 cbr 500 ------- 0 0.0 3.0 61 116
- 0.405 0 2 cbr 500 ------- 0 0.0 3.0 61 116
r 0.4052 0 2 cbr 500 ------- 0 0.0 3.0 59 112
+ 0.4052 2 3 cbr 500 ------- 0 0.0 3.0 59 112
- 0.4052 2 3 cbr 500 ------- 0 0.0 3.0 59 112
+ 0.40625 1 2 cbr 210 ------- 0 1.0 3.0 55 117
- 0.40625 1 2 cbr 210 ------- 0 1.0 3.0 55 117
r 0.407534 1 2 cbr 210 ------- 0 1.0 3.0 54 115
+ 0.407534 2 3 cbr 210 ------- 0 1.0 3.0 54 115
- 0.407534 2 3 cbr 210 ------- 0 1.0 3.0 54 115
+ 0.41 1 2 cbr 210 ------- 0 1.0 3.0 56 118
- 0.41 1 2 cbr 210 ------- 0 1.0 3.0 56 118
+ 0.41 0 2 cbr 500 ------- 0 0.0 3.0 62 119
- 0.41 0 2 cbr 500 ------- 0 0.0 3.0 62 119
r 0.4102 0 2 cbr 500 ------- 0 0.0 3.0 60 114
+ 0.4102 2 3 cbr 500 ------- 0 0.0 3.0 60 114
- 0.4102 2 3 cbr 500 ------- 0 0.0 3.0 60 114
r 0.411284 1 2 cbr 210 ------- 0 1.0 3.0 55 117
+ 0.411284 2 3 cbr 210 ------- 0 1.0 3.0 55 117
- 0.411284 2 3 cbr 210 ------- 0 1.0 3.0 55 117
+ 0.41375 1 2 cbr 210 ------- 0 1.0 3.0 57 120
- 0.41375 1 2 cbr 210 ------- 0 1.0 3.0 57 120
+ 0.415 0 2 cbr 500 ------- 0 0.0 3.0 63 121
- 0.415 0 2 cbr 500 ------- 0 0.0 3.0 63 121
r 0.415034 1 2 cbr 210 ------- 0 1.0 3.0 56 118
+ 0.415034 2 3 cbr 210 ------- 0 1.0 3.0 56 118
- 0.415034 2 3 cbr 210 ------- 0 1.0 3.0 56 118
r 0.4152 0 2 cbr 500 ------- 0 0.0 3.0 61 116
+ 0.4152 2 3 cbr 500 ------- 0 0.0 3.0 61 116
- 0.415202 2 3 cbr 500 ------- 0 0.0 3.0 61 116
+ 0.4175 1 2 cbr 210 ------- 0 1.0 3.0 58 122
- 0.4175 1 2 cbr 210 ------- 0 1.0 3.0 58 122
r 0.418784 1 2 cbr 210 ------- 0 1.0 3.0 57 120
+ 0.418784 2 3 cbr 210 ------- 0 1.0 3.0 57 120
- 0.418784 2 3 cbr 210 ------- 0 1.0 3.0 57 120
+ 0.42 0 2 cbr 500 ------- 0 0.0 3.0 64 123
- 0.42 0 2 cbr 500 ------- 0 0.0 3.0 64 123
r 0.4202 0 2 cbr 500 ------- 0 0.0 3.0 62 119
+ 0.4202 2 3 cbr 500 ------- 0 0.0 3.0 62 119
- 0.4202 2 3 cbr 500 ------- 0 0.0 3.0 62 119
+ 0.42125 1 2 cbr 210 ------- 0 1.0 3.0 59 124
- 0.42125 1 2 cbr 210 ------- 0 1.0 3.0 59 124
r 0.422534 1 2 cbr 210 ------- 0 1.0 3.0 58 122
+ 0.422534 2 3 cbr 210 ------- 0 1.0 3.0 58 122
- 0.422534 2 3 cbr 210 ------- 0 1.0 3.0 58 122
+ 0.425 1 2 cbr 210 ------- 0 1.0 3.0 60 125
- 0.425 1 2 cbr 210 ------- 0 1.0 3.0 60 125
+ 0.425 0 2 cbr 500 ------- 0 0.0 3.0 65 126
- 0.425 0 2 cbr 500 ------- 0 0.0 3.0 65 126
r 0.4252 0 2 cbr 500 ------- 0 0.0 3.0 63 121
+ 0.4252 2 3 cbr 500 ------- 0 0.0 3.0 63 121
- 0.4252 2 3 cbr 500 ------- 0 0.0 3.0 63 121
r 0.426284 1 2 cbr 210 ------- 0 1.0 3.0 59 124
+ 0.426284 2 3 cbr 210 ------- 0 1.0 3.0 59 124
- 0.426284 2 3 cbr 210 ------- 0 1.0 3.0 59 124
+ 0.42875 1 2 cbr 210 ------- 0 1.0 3.0 61 127
- 0.42875 1 2 cbr 210 ------- 0 1.0 3.0 61 127
+ 0.43 0 2 cbr 500 ------- 0 0.0 3.0 66 128
- 0.43 0 2 cbr 500 ------- 0 0.0 3.0 66 128
r 0.430034 1 2 cbr 210 ------- 0 1.0 3.0 60 125
+ 0.430034 2 3 cbr 210 ------- 0 1.0 3.0 60 125
- 0.430034 2 3 cbr 210 ------- 0 1.0 3.0 60 125
r 0.4302 0 2 cbr 500 ------- 0 0.0 3.0 64 123
+ 0.4302 2 3 cbr 500 ------- 0 0.0 3.0 64 123
- 0.430202 2 3 cbr 500 ------- 0 0.0 3.0 64 123
+ 0.4325 1 2 cbr 210 ------- 0 1.0 3.0 62 129
- 0.4325 1 2 cbr 210 ------- 0 1.0 3.0 62 129
r 0.433784 1 2 cbr 210 ------- 0 1.0 3.0 61 127
+ 0.433784 2 3 cbr 210 ------- 0 1.0 3.0 61 127
- 0.433784 2 3 cbr 210 ------- 0 1.0 3.0 61 127
+ 0.435 0 2 cbr 500 ------- 0 0.0 3.0 67 130
- 0.435 0 2 cbr 500 ------- 0 0.0 3.0 67 130
r 0.4352 0 2 cbr 500 ------- 0 0.0 3.0 65 126
+ 0.4352 2 3 cbr 500 ------- 0 0.0 3.0 65 126
- 0.4352 2 3 cbr 500 ------- 0 0.0 3.0 65 126
+ 0.43625 1 2 cbr 210 ------- 0 1.0 3.0 63 131
- 0.43625 1 2 cbr 210 ------- 0 1.0 3.0 63 131
r 0.437534 1 2 cbr 210 ------- 0 1.0 3.0 62 129
+ 0.437534 2 3 cbr 210 ------- 0 1.0 3.0 62 129
- 0.437534 2 3 cbr 210 ------- 0 1.0 3.0 62 129
+ 0.44 1 2 cbr 210 ------- 0 1.0 3.0 64 132
- 0.44 1 2 cbr 210 ------- 0 1.0 3.0 64 132
+ 0.44 0 2 cbr 500 ------- 0 0.0 3.0 68 133
- 0.44 0 2 cbr 500 ------- 0 0.0 3.0 68 133
r 0.4402 0 2 cbr 500 ------- 0 0.0 3.0 66 128
+ 0.4402 2 3 cbr 500 ------- 0 0.0 3.0 66 128
- 0.4402 2 3 cbr 500 ------- 0 0.0 3.0 66 128
r 0.441284 1 2 cbr 210 ------- 0 1.0 3.0 63 131
+ 0.441284 2 3 cbr 210 ------- 0 1.0 3.0 63 131
- 0.441284 2 3 cbr 210 ------- 0 1.0 3.0 63 131