+ 0.8 0 3 tcp 40 ------- 0 0.0 4.0 0 0
- 0.8 0 3 tcp 40 ------- 0 0.0 4.0 0 0
r 0.800107 0 3 tcp 40 ------- 0 0.0 4.0 0 0
+ 0.800107 3 1 tcp 40 ------- 0 0.0 4.0 0 0
- 0.800107 3 1 tcp 40 ------- 0 0.0 4.0 0 0
r 1.83344 3 1 tcp 40 ------- 0 0.0 4.0 0 0
+ 1.83344 1 2 tcp 40 ------- 0 0.0 4.0 0 0
- 1.83344 1 2 tcp 40 ------- 0 0.0 4.0 0 0
r 2.366773 1 2 tcp 40 ------- 0 0.0 4.0 0 0
+ 2.366773 2 4 tcp 40 ------- 0 0.0 4.0 0 0
- 2.366773 2 4 tcp 40 ------- 0 0.0 4.0 0 0
r 2.36688 2 4 tcp 40 ------- 0 0.0 4.0 0 0
+ 2.36688 4 2 ack 40 ------- 0 4.0 0.0 0 1
- 2.36688 4 2 ack 40 ------- 0 4.0 0.0 0 1
r 2.366987 4 2 ack 40 ------- 0 4.0 0.0 0 1
+ 2.366987 2 1 ack 40 ------- 0 4.0 0.0 0 1
- 2.366987 2 1 ack 40 ------- 0 4.0 0.0 0 1
r 2.90032 2 1 ack 40 ------- 0 4.0 0.0 0 1
+ 2.90032 1 3 ack 40 ------- 0 4.0 0.0 0 1
- 2.90032 1 3 ack 40 ------- 0 4.0 0.0 0 1
+ 3.8 0 3 tcp 40 ---A--- 0 0.0 4.0 0 2
- 3.8 0 3 tcp 40 ---A--- 0 0.0 4.0 0 2
r 3.800107 0 3 tcp 40 ---A--- 0 0.0 4.0 0 2
+ 3.800107 3 1 tcp 40 ---A--- 0 0.0 4.0 0 2
- 3.800107 3 1 tcp 40 ---A--- 0 0.0 4.0 0 2
r 3.933653 1 3 ack 40 ------- 0 4.0 0.0 0 1
+ 3.933653 3 0 ack 40 ------- 0 4.0 0.0 0 1
- 3.933653 3 0 ack 40 ------- 0 4.0 0.0 0 1
r 3.93376 3 0 ack 40 ------- 0 4.0 0.0 0 1
+ 3.93376 0 3 tcp 1040 ------- 0 0.0 4.0 1 3
- 3.93376 0 3 tcp 1040 ------- 0 0.0 4.0 1 3
r 3.936534 0 3 tcp 1040 ------- 0 0.0 4.0 1 3
+ 3.936534 3 1 tcp 1040 ------- 0 0.0 4.0 1 3
- 3.936534 3 1 tcp 1040 ------- 0 0.0 4.0 1 3
r 4.83344 3 1 tcp 40 ---A--- 0 0.0 4.0 0 2
+ 4.83344 1 2 tcp 40 ---A--- 0 0.0 4.0 0 2
- 4.83344 1 2 tcp 40 ---A--- 0 0.0 4.0 0 2
r 5.366773 1 2 tcp 40 ---A--- 0 0.0 4.0 0 2
+ 5.366773 2 4 tcp 40 ---A--- 0 0.0 4.0 0 2
- 5.366773 2 4 tcp 40 ---A--- 0 0.0 4.0 0 2
r 5.36688 2 4 tcp 40 ---A--- 0 0.0 4.0 0 2
+ 5.36688 4 2 ack 40 ------- 0 4.0 0.0 0 4
- 5.36688 4 2 ack 40 ------- 0 4.0 0.0 0 4
r 5.366987 4 2 ack 40 ------- 0 4.0 0.0 0 4
+ 5.366987 2 1 ack 40 ------- 0 4.0 0.0 0 4
- 5.366987 2 1 ack 40 ------- 0 4.0 0.0 0 4
r 5.8032 3 1 tcp 1040 ------- 0 0.0 4.0 1 3
+ 5.8032 1 2 tcp 1040 ------- 0 0.0 4.0 1 3
- 5.8032 1 2 tcp 1040 ------- 0 0.0 4.0 1 3
r 5.90032 2 1 ack 40 ------- 0 4.0 0.0 0 4
+ 5.90032 1 3 ack 40 ------- 0 4.0 0.0 0 4
- 5.90032 1 3 ack 40 ------- 0 4.0 0.0 0 4
r 6.933653 1 3 ack 40 ------- 0 4.0 0.0 0 4
+ 6.933653 3 0 ack 40 ------- 0 4.0 0.0 0 4
- 6.933653 3 0 ack 40 ------- 0 4.0 0.0 0 4
r 6.93376 3 0 ack 40 ------- 0 4.0 0.0 0 4
r 7.169867 1 2 tcp 1040 ------- 0 0.0 4.0 1 3
+ 7.169867 2 4 tcp 1040 ------- 0 0.0 4.0 1 3
- 7.169867 2 4 tcp 1040 ------- 0 0.0 4.0 1 3
r 7.17264 2 4 tcp 1040 ------- 0 0.0 4.0 1 3
+ 7.17264 4 2 ack 40 ------- 0 4.0 0.0 1 5
- 7.17264 4 2 ack 40 ------- 0 4.0 0.0 1 5
r 7.172747 4 2 ack 40 ------- 0 4.0 0.0 1 5
+ 7.172747 2 1 ack 40 ------- 0 4.0 0.0 1 5
- 7.172747 2 1 ack 40 ------- 0 4.0 0.0 1 5
r 7.70608 2 1 ack 40 ------- 0 4.0 0.0 1 5
+ 7.70608 1 3 ack 40 ------- 0 4.0 0.0 1 5
- 7.70608 1 3 ack 40 ------- 0 4.0 0.0 1 5
r 8.739414 1 3 ack 40 ------- 0 4.0 0.0 1 5
+ 8.739414 3 0 ack 40 ------- 0 4.0 0.0 1 5
- 8.739414 3 0 ack 40 ------- 0 4.0 0.0 1 5
r 8.73952 3 0 ack 40 ------- 0 4.0 0.0 1 5
+ 8.73952 0 3 tcp 1040 ------- 0 0.0 4.0 2 6
- 8.73952 0 3 tcp 1040 ------- 0 0.0 4.0 2 6
+ 8.73952 0 3 tcp 1040 ------- 0 0.0 4.0 3 7
- 8.742294 0 3 tcp 1040 ------- 0 0.0 4.0 3 7
r 8.742294 0 3 tcp 1040 ------- 0 0.0 4.0 2 6
+ 8.742294 3 1 tcp 1040 ------- 0 0.0 4.0 2 6
- 8.742294 3 1 tcp 1040 ------- 0 0.0 4.0 2 6
r 8.745067 0 3 tcp 1040 ------- 0 0.0 4.0 3 7
+ 8.745067 3 1 tcp 1040 ------- 0 0.0 4.0 3 7
- 9.60896 3 1 tcp 1040 ------- 0 0.0 4.0 3 7
r 10.60896 3 1 tcp 1040 ------- 0 0.0 4.0 2 6
+ 10.60896 1 2 tcp 1040 ------- 0 0.0 4.0 2 6
- 10.60896 1 2 tcp 1040 ------- 0 0.0 4.0 2 6
r 11.475627 3 1 tcp 1040 ------- 0 0.0 4.0 3 7
+ 11.475627 1 2 tcp 1040 ------- 0 0.0 4.0 3 7
- 11.475627 1 2 tcp 1040 ------- 0 0.0 4.0 3 7
r 11.975627 1 2 tcp 1040 ------- 0 0.0 4.0 2 6
+ 11.975627 2 4 tcp 1040 ------- 0 0.0 4.0 2 6
- 11.975627 2 4 tcp 1040 ------- 0 0.0 4.0 2 6
r 11.9784 2 4 tcp 1040 ------- 0 0.0 4.0 2 6
+ 11.9784 4 2 ack 40 ------- 0 4.0 0.0 2 8
- 11.9784 4 2 ack 40 ------- 0 4.0 0.0 2 8
r 11.978507 4 2 ack 40 ------- 0 4.0 0.0 2 8
+ 11.978507 2 1 ack 40 ------- 0 4.0 0.0 2 8
- 11.978507 2 1 ack 40 ------- 0 4.0 0.0 2 8
r 12.51184 2 1 ack 40 ------- 0 4.0 0.0 2 8
+ 12.51184 1 3 ack 40 ------- 0 4.0 0.0 2 8
- 12.51184 1 3 ack 40 ------- 0 4.0 0.0 2 8
r 12.842294 1 2 tcp 1040 ------- 0 0.0 4.0 3 7
+ 12.842294 2 4 tcp 1040 ------- 0 0.0 4.0 3 7
- 12.842294 2 4 tcp 1040 ------- 0 0.0 4.0 3 7
r 12.845067 2 4 tcp 1040 ------- 0 0.0 4.0 3 7
+ 12.845067 4 2 ack 40 ------- 0 4.0 0.0 3 9
- 12.845067 4 2 ack 40 ------- 0 4.0 0.0 3 9
r 12.845174 4 2 ack 40 ------- 0 4.0 0.0 3 9
+ 12.845174 2 1 ack 40 ------- 0 4.0 0.0 3 9
- 12.845174 2 1 ack 40 ------- 0 4.0 0.0 3 9
r 13.378507 2 1 ack 40 ------- 0 4.0 0.0 3 9
+ 13.378507 1 3 ack 40 ------- 0 4.0 0.0 3 9
- 13.378507 1 3 ack 40 ------- 0 4.0 0.0 3 9
r 13.545174 1 3 ack 40 ------- 0 4.0 0.0 2 8
+ 13.545174 3 0 ack 40 ------- 0 4.0 0.0 2 8
- 13.545174 3 0 ack 40 ------- 0 4.0 0.0 2 8
r 13.54528 3 0 ack 40 ------- 0 4.0 0.0 2 8
+ 13.54528 0 3 tcp 1040 ------- 0 0.0 4.0 4 10
- 13.54528 0 3 tcp 1040 ------- 0 0.0 4.0 4 10
r 13.548054 0 3 tcp 1040 ------- 0 0.0 4.0 4 10
+ 13.548054 3 1 tcp 1040 ------- 0 0.0 4.0 4 10
- 13.548054 3 1 tcp 1040 ------- 0 0.0 4.0 4 10
r 14.41184 1 3 ack 40 ------- 0 4.0 0.0 3 9
+ 14.41184 3 0 ack 40 ------- 0 4.0 0.0 3 9
- 14.41184 3 0 ack 40 ------- 0 4.0 0.0 3 9
r 14.411947 3 0 ack 40 ------- 0 4.0 0.0 3 9
+ 14.411947 0 3 tcp 1040 ------- 0 0.0 4.0 5 11
- 14.411947 0 3 tcp 1040 ------- 0 0.0 4.0 5 11
r 14.41472 0 3 tcp 1040 ------- 0 0.0 4.0 5 11
+ 14.41472 3 1 tcp 1040 ------- 0 0.0 4.0 5 11
- 14.41472 3 1 tcp 1040 ------- 0 0.0 4.0 5 11
r 15.41472 3 1 tcp 1040 ------- 0 0.0 4.0 4 10
+ 15.41472 1 2 tcp 1040 ------- 0 0.0 4.0 4 10
- 15.41472 1 2 tcp 1040 ------- 0 0.0 4.0 4 10
r 16.281387 3 1 tcp 1040 ------- 0 0.0 4.0 5 11
+ 16.281387 1 2 tcp 1040 ------- 0 0.0 4.0 5 11
- 16.281387 1 2 tcp 1040 ------- 0 0.0 4.0 5 11
r 16.781387 1 2 tcp 1040 ------- 0 0.0 4.0 4 10
+ 16.781387 2 4 tcp 1040 ------- 0 0.0 4.0 4 10
- 16.781387 2 4 tcp 1040 ------- 0 0.0 4.0 4 10
r 16.78416 2 4 tcp 1040 ------- 0 0.0 4.0 4 10
+ 16.78416 4 2 ack 40 ------- 0 4.0 0.0 4 12
- 16.78416 4 2 ack 40 ------- 0 4.0 0.0 4 12
r 16.784267 4 2 ack 40 ------- 0 4.0 0.0 4 12
+ 16.784267 2 1 ack 40 ------- 0 4.0 0.0 4 12
- 16.784267 2 1 ack 40 ------- 0 4.0 0.0 4 12
r 17.3176 2 1 ack 40 ------- 0 4.0 0.0 4 12
+ 17.3176 1 3 ack 40 ------- 0 4.0 0.0 4 12
- 17.3176 1 3 ack 40 ------- 0 4.0 0.0 4 12
r 17.648054 1 2 tcp 1040 ------- 0 0.0 4.0 5 11
+ 17.648054 2 4 tcp 1040 ------- 0 0.0 4.0 5 11
- 17.648054 2 4 tcp 1040 ------- 0 0.0 4.0 5 11
r 17.650827 2 4 tcp 1040 ------- 0 0.0 4.0 5 11
+ 17.650827 4 2 ack 40 ------- 0 4.0 0.0 5 13
- 17.650827 4 2 ack 40 ------- 0 4.0 0.0 5 13
r 17.650934 4 2 ack 40 ------- 0 4.0 0.0 5 13
+ 17.650934 2 1 ack 40 ------- 0 4.0 0.0 5 13
- 17.650934 2 1 ack 40 ------- 0 4.0 0.0 5 13
r 18.184267 2 1 ack 40 ------- 0 4.0 0.0 5 13
+ 18.184267 1 3 ack 40 ------- 0 4.0 0.0 5 13
- 18.184267 1 3 ack 40 ------- 0 4.0 0.0 5 13
r 18.350934 1 3 ack 40 ------- 0 4.0 0.0 4 12
+ 18.350934 3 0 ack 40 ------- 0 4.0 0.0 4 12
- 18.350934 3 0 ack 40 ------- 0 4.0 0.0 4 12
r 18.35104 3 0 ack 40 ------- 0 4.0 0.0 4 12
+ 18.35104 0 3 tcp 1040 ------- 0 0.0 4.0 6 14
- 18.35104 0 3 tcp 1040 ------- 0 0.0 4.0 6 14
+ 18.35104 0 3 tcp 1040 ------- 0 0.0 4.0 7 15
- 18.353814 0 3 tcp 1040 ------- 0 0.0 4.0 7 15
r 18.353814 0 3 tcp 1040 ------- 0 0.0 4.0 6 14
+ 18.353814 3 1 tcp 1040 ------- 0 0.0 4.0 6 14
- 18.353814 3 1 tcp 1040 ------- 0 0.0 4.0 6 14
r 18.356587 0 3 tcp 1040 ------- 0 0.0 4.0 7 15
+ 18.356587 3 1 tcp 1040 ------- 0 0.0 4.0 7 15
r 19.2176 1 3 ack 40 ------- 0 4.0 0.0 5 13
+ 19.2176 3 0 ack 40 ------- 0 4.0 0.0 5 13
- 19.2176 3 0 ack 40 ------- 0 4.0 0.0 5 13
r 19.217707 3 0 ack 40 ------- 0 4.0 0.0 5 13
+ 19.217707 0 3 tcp 1040 ------- 0 0.0 4.0 8 16
- 19.217707 0 3 tcp 1040 ------- 0 0.0 4.0 8 16
- 19.220481 3 1 tcp 1040 ------- 0 0.0 4.0 7 15
r 19.220481 0 3 tcp 1040 ------- 0 0.0 4.0 8 16
+ 19.220481 3 1 tcp 1040 ------- 0 0.0 4.0 8 16
- 20.087147 3 1 tcp 1040 ------- 0 0.0 4.0 8 16
r 20.220481 3 1 tcp 1040 ------- 0 0.0 4.0 6 14
+ 20.220481 1 2 tcp 1040 ------- 0 0.0 4.0 6 14
- 20.220481 1 2 tcp 1040 ------- 0 0.0 4.0 6 14
r 21.087147 3 1 tcp 1040 ------- 0 0.0 4.0 7 15
+ 21.087147 1 2 tcp 1040 ------- 0 0.0 4.0 7 15
- 21.087147 1 2 tcp 1040 ------- 0 0.0 4.0 7 15
r 21.587147 1 2 tcp 1040 ------- 0 0.0 4.0 6 14
+ 21.587147 2 4 tcp 1040 ------- 0 0.0 4.0 6 14
- 21.587147 2 4 tcp 1040 ------- 0 0.0 4.0 6 14
r 21.589921 2 4 tcp 1040 ------- 0 0.0 4.0 6 14
+ 21.589921 4 2 ack 40 ------- 0 4.0 0.0 6 17
- 21.589921 4 2 ack 40 ------- 0 4.0 0.0 6 17
r 21.590027 4 2 ack 40 ------- 0 4.0 0.0 6 17
+ 21.590027 2 1 ack 40 ------- 0 4.0 0.0 6 17
- 21.590027 2 1 ack 40 ------- 0 4.0 0.0 6 17
r 21.953814 3 1 tcp 1040 ------- 0 0.0 4.0 8 16
+ 21.953814 1 2 tcp 1040 ------- 0 0.0 4.0 8 16
- 21.953814 1 2 tcp 1040 ------- 0 0.0 4.0 8 16
r 22.123361 2 1 ack 40 ------- 0 4.0 0.0 6 17
+ 22.123361 1 3 ack 40 ------- 0 4.0 0.0 6 17
- 22.123361 1 3 ack 40 ------- 0 4.0 0.0 6 17
r 22.453814 1 2 tcp 1040 ------- 0 0.0 4.0 7 15
+ 22.453814 2 4 tcp 1040 ------- 0 0.0 4.0 7 15
- 22.453814 2 4 tcp 1040 ------- 0 0.0 4.0 7 15
r 22.456587 2 4 tcp 1040 ------- 0 0.0 4.0 7 15
+ 22.456587 4 2 ack 40 ------- 0 4.0 0.0 7 18
- 22.456587 4 2 ack 40 ------- 0 4.0 0.0 7 18
r 22.456694 4 2 ack 40 ------- 0 4.0 0.0 7 18
+ 22.456694 2 1 ack 40 ------- 0 4.0 0.0 7 18
- 22.456694 2 1 ack 40 ------- 0 4.0 0.0 7 18
r 22.990027 2 1 ack 40 ------- 0 4.0 0.0 7 18
+ 22.990027 1 3 ack 40 ------- 0 4.0 0.0 7 18
- 22.990027 1 3 ack 40 ------- 0 4.0 0.0 7 18
r 23.156694 1 3 ack 40 ------- 0 4.0 0.0 6 17
+ 23.156694 3 0 ack 40 ------- 0 4.0 0.0 6 17
- 23.156694 3 0 ack 40 ------- 0 4.0 0.0 6 17
r 23.156801 3 0 ack 40 ------- 0 4.0 0.0 6 17
+ 23.156801 0 3 tcp 1040 ------- 0 0.0 4.0 9 19
- 23.156801 0 3 tcp 1040 ------- 0 0.0 4.0 9 19
r 23.159574 0 3 tcp 1040 ------- 0 0.0 4.0 9 19
+ 23.159574 3 1 tcp 1040 ------- 0 0.0 4.0 9 19
- 23.159574 3 1 tcp 1040 ------- 0 0.0 4.0 9 19
r 23.320481 1 2 tcp 1040 ------- 0 0.0 4.0 8 16
+ 23.320481 2 4 tcp 1040 ------- 0 0.0 4.0 8 16
- 23.320481 2 4 tcp 1040 ------- 0 0.0 4.0 8 16
r 23.323254 2 4 tcp 1040 ------- 0 0.0 4.0 8 16
+ 23.323254 4 2 ack 40 ------- 0 4.0 0.0 8 20
- 23.323254 4 2 ack 40 ------- 0 4.0 0.0 8 20
r 23.323361 4 2 ack 40 ------- 0 4.0 0.0 8 20
+ 23.323361 2 1 ack 40 ------- 0 4.0 0.0 8 20
- 23.323361 2 1 ack 40 ------- 0 4.0 0.0 8 20
r 23.856694 2 1 ack 40 ------- 0 4.0 0.0 8 20
+ 23.856694 1 3 ack 40 ------- 0 4.0 0.0 8 20
- 23.856694 1 3 ack 40 ------- 0 4.0 0.0 8 20
r 24.023361 1 3 ack 40 ------- 0 4.0 0.0 7 18
+ 24.023361 3 0 ack 40 ------- 0 4.0 0.0 7 18
- 24.023361 3 0 ack 40 ------- 0 4.0 0.0 7 18
r 24.023467 3 0 ack 40 ------- 0 4.0 0.0 7 18
+ 24.023467 0 3 tcp 1040 ------- 0 0.0 4.0 10 21
- 24.023467 0 3 tcp 1040 ------- 0 0.0 4.0 10 21
+ 24.023467 0 3 tcp 1040 ------- 0 0.0 4.0 11 22
- 24.026241 0 3 tcp 1040 ------- 0 0.0 4.0 11 22
r 24.026241 0 3 tcp 1040 ------- 0 0.0 4.0 10 21
+ 24.026241 3 1 tcp 1040 ------- 0 0.0 4.0 10 21
- 24.026241 3 1 tcp 1040 ------- 0 0.0 4.0 10 21
r 24.029014 0 3 tcp 1040 ------- 0 0.0 4.0 11 22
+ 24.029014 3 1 tcp 1040 ------- 0 0.0 4.0 11 22
r 24.890027 1 3 ack 40 ------- 0 4.0 0.0 8 20
+ 24.890027 3 0 ack 40 ------- 0 4.0 0.0 8 20
- 24.890027 3 0 ack 40 ------- 0 4.0 0.0 8 20
r 24.890134 3 0 ack 40 ------- 0 4.0 0.0 8 20
+ 24.890134 0 3 tcp 1040 ------- 0 0.0 4.0 12 23
- 24.890134 0 3 tcp 1040 ------- 0 0.0 4.0 12 23
- 24.892907 3 1 tcp 1040 ------- 0 0.0 4.0 11 22
r 24.892907 0 3 tcp 1040 ------- 0 0.0 4.0 12 23
+ 24.892907 3 1 tcp 1040 ------- 0 0.0 4.0 12 23
r 25.026241 3 1 tcp 1040 ------- 0 0.0 4.0 9 19
+ 25.026241 1 2 tcp 1040 ------- 0 0.0 4.0 9 19
- 25.026241 1 2 tcp 1040 ------- 0 0.0 4.0 9 19
- 25.759574 3 1 tcp 1040 ------- 0 0.0 4.0 12 23
r 25.892907 3 1 tcp 1040 ------- 0 0.0 4.0 10 21
+ 25.892907 1 2 tcp 1040 ------- 0 0.0 4.0 10 21
- 25.892907 1 2 tcp 1040 ------- 0 0.0 4.0 10 21
r 26.392907 1 2 tcp 1040 ------- 0 0.0 4.0 9 19
+ 26.392907 2 4 tcp 1040 ------- 0 0.0 4.0 9 19
- 26.392907 2 4 tcp 1040 ------- 0 0.0 4.0 9 19
r 26.395681 2 4 tcp 1040 ------- 0 0.0 4.0 9 19
+ 26.395681 4 2 ack 40 ------- 0 4.0 0.0 9 24
- 26.395681 4 2 ack 40 ------- 0 4.0 0.0 9 24
r 26.395787 4 2 ack 40 ------- 0 4.0 0.0 9 24
+ 26.395787 2 1 ack 40 ------- 0 4.0 0.0 9 24
- 26.395787 2 1 ack 40 ------- 0 4.0 0.0 9 24
r 26.759574 3 1 tcp 1040 ------- 0 0.0 4.0 11 22
+ 26.759574 1 2 tcp 1040 ------- 0 0.0 4.0 11 22
- 26.759574 1 2 tcp 1040 ------- 0 0.0 4.0 11 22
r 26.929121 2 1 ack 40 ------- 0 4.0 0.0 9 24
+ 26.929121 1 3 ack 40 ------- 0 4.0 0.0 9 24
- 26.929121 1 3 ack 40 ------- 0 4.0 0.0 9 24
r 27.259574 1 2 tcp 1040 ------- 0 0.0 4.0 10 21
+ 27.259574 2 4 tcp 1040 ------- 0 0.0 4.0 10 21
- 27.259574 2 4 tcp 1040 ------- 0 0.0 4.0 10 21
r 27.262347 2 4 tcp 1040 ------- 0 0.0 4.0 10 21
+ 27.262347 4 2 ack 40 ------- 0 4.0 0.0 10 25
- 27.262347 4 2 ack 40 ------- 0 4.0 0.0 10 25
r 27.262454 4 2 ack 40 ------- 0 4.0 0.0 10 25
+ 27.262454 2 1 ack 40 ------- 0 4.0 0.0 10 25
- 27.262454 2 1 ack 40 ------- 0 4.0 0.0 10 25
r 27.626241 3 1 tcp 1040 ------- 0 0.0 4.0 12 23
+ 27.626241 1 2 tcp 1040 ------- 0 0.0 4.0 12 23
- 27.626241 1 2 tcp 1040 ------- 0 0.0 4.0 12 23
r 27.795787 2 1 ack 40 ------- 0 4.0 0.0 10 25
+ 27.795787 1 3 ack 40 ------- 0 4.0 0.0 10 25
- 27.795787 1 3 ack 40 ------- 0 4.0 0.0 10 25
r 27.962454 1 3 ack 40 ------- 0 4.0 0.0 9 24
+ 27.962454 3 0 ack 40 ------- 0 4.0 0.0 9 24
- 27.962454 3 0 ack 40 ------- 0 4.0 0.0 9 24
r 27.962561 3 0 ack 40 ------- 0 4.0 0.0 9 24
+ 27.962561 0 3 tcp 1040 ------- 0 0.0 4.0 13 26
- 27.962561 0 3 tcp 1040 ------- 0 0.0 4.0 13 26
r 27.965334 0 3 tcp 1040 ------- 0 0.0 4.0 13 26
+ 27.965334 3 1 tcp 1040 ------- 0 0.0 4.0 13 26
- 27.965334 3 1 tcp 1040 ------- 0 0.0 4.0 13 26
r 28.126241 1 2 tcp 1040 ------- 0 0.0 4.0 11 22
+ 28.126241 2 4 tcp 1040 ------- 0 0.0 4.0 11 22
- 28.126241 2 4 tcp 1040 ------- 0 0.0 4.0 11 22
r 28.129014 2 4 tcp 1040 ------- 0 0.0 4.0 11 22
+ 28.129014 4 2 ack 40 ------- 0 4.0 0.0 11 27
- 28.129014 4 2 ack 40 ------- 0 4.0 0.0 11 27
r 28.129121 4 2 ack 40 ------- 0 4.0 0.0 11 27
+ 28.129121 2 1 ack 40 ------- 0 4.0 0.0 11 27
- 28.129121 2 1 ack 40 ------- 0 4.0 0.0 11 27
r 28.662454 2 1 ack 40 ------- 0 4.0 0.0 11 27
+ 28.662454 1 3 ack 40 ------- 0 4.0 0.0 11 27
- 28.662454 1 3 ack 40 ------- 0 4.0 0.0 11 27
r 28.829121 1 3 ack 40 ------- 0 4.0 0.0 10 25
+ 28.829121 3 0 ack 40 ------- 0 4.0 0.0 10 25
- 28.829121 3 0 ack 40 ------- 0 4.0 0.0 10 25
r 28.829227 3 0 ack 40 ------- 0 4.0 0.0 10 25
+ 28.829227 0 3 tcp 1040 ------- 0 0.0 4.0 14 28
- 28.829227 0 3 tcp 1040 ------- 0 0.0 4.0 14 28
r 28.832001 0 3 tcp 1040 ------- 0 0.0 4.0 14 28
+ 28.832001 3 1 tcp 1040 ------- 0 0.0 4.0 14 28
- 28.832001 3 1 tcp 1040 ------- 0 0.0 4.0 14 28
r 28.992907 1 2 tcp 1040 ------- 0 0.0 4.0 12 23
+ 28.992907 2 4 tcp 1040 ------- 0 0.0 4.0 12 23
- 28.992907 2 4 tcp 1040 ------- 0 0.0 4.0 12 23
r 28.995681 2 4 tcp 1040 ------- 0 0.0 4.0 12 23
+ 28.995681 4 2 ack 40 ------- 0 4.0 0.0 12 29
- 28.995681 4 2 ack 40 ------- 0 4.0 0.0 12 29
r 28.995787 4 2 ack 40 ------- 0 4.0 0.0 12 29
+ 28.995787 2 1 ack 40 ------- 0 4.0 0.0 12 29
- 28.995787 2 1 ack 40 ------- 0 4.0 0.0 12 29
r 29.529121 2 1 ack 40 ------- 0 4.0 0.0 12 29
+ 29.529121 1 3 ack 40 ------- 0 4.0 0.0 12 29
- 29.529121 1 3 ack 40 ------- 0 4.0 0.0 12 29
r 29.695787 1 3 ack 40 ------- 0 4.0 0.0 11 27
+ 29.695787 3 0 ack 40 ------- 0 4.0 0.0 11 27
- 29.695787 3 0 ack 40 ------- 0 4.0 0.0 11 27
r 29.695894 3 0 ack 40 ------- 0 4.0 0.0 11 27
+ 29.695894 0 3 tcp 1040 ------- 0 0.0 4.0 15 30
- 29.695894 0 3 tcp 1040 ------- 0 0.0 4.0 15 30
r 29.698667 0 3 tcp 1040 ------- 0 0.0 4.0 15 30
+ 29.698667 3 1 tcp 1040 ------- 0 0.0 4.0 15 30
- 29.698667 3 1 tcp 1040 ------- 0 0.0 4.0 15 30
r 29.832001 3 1 tcp 1040 ------- 0 0.0 4.0 13 26
+ 29.832001 1 2 tcp 1040 ------- 0 0.0 4.0 13 26
- 29.832001 1 2 tcp 1040 ------- 0 0.0 4.0 13 26
r 30.562454 1 3 ack 40 ------- 0 4.0 0.0 12 29
+ 30.562454 3 0 ack 40 ------- 0 4.0 0.0 12 29
- 30.562454 3 0 ack 40 ------- 0 4.0 0.0 12 29
r 30.562561 3 0 ack 40 ------- 0 4.0 0.0 12 29
+ 30.562561 0 3 tcp 1040 ------- 0 0.0 4.0 16 31
- 30.562561 0 3 tcp 1040 ------- 0 0.0 4.0 16 31
+ 30.562561 0 3 tcp 1040 ------- 0 0.0 4.0 17 32
- 30.565334 0 3 tcp 1040 ------- 0 0.0 4.0 17 32
r 30.565334 0 3 tcp 1040 ------- 0 0.0 4.0 16 31
+ 30.565334 3 1 tcp 1040 ------- 0 0.0 4.0 16 31
- 30.565334 3 1 tcp 1040 ------- 0 0.0 4.0 16 31
r 30.568107 0 3 tcp 1040 ------- 0 0.0 4.0 17 32
+ 30.568107 3 1 tcp 1040 ------- 0 0.0 4.0 17 32
r 30.698667 3 1 tcp 1040 ------- 0 0.0 4.0 14 28
+ 30.698667 1 2 tcp 1040 ------- 0 0.0 4.0 14 28
- 30.698667 1 2 tcp 1040 ------- 0 0.0 4.0 14 28
r 31.198667 1 2 tcp 1040 ------- 0 0.0 4.0 13 26
+ 31.198667 2 4 tcp 1040 ------- 0 0.0 4.0 13 26
- 31.198667 2 4 tcp 1040 ------- 0 0.0 4.0 13 26
r 31.201441 2 4 tcp 1040 ------- 0 0.0 4.0 13 26
+ 31.201441 4 2 ack 40 ------- 0 4.0 0.0 13 33
- 31.201441 4 2 ack 40 ------- 0 4.0 0.0 13 33
r 31.201547 4 2 ack 40 ------- 0 4.0 0.0 13 33
+ 31.201547 2 1 ack 40 ------- 0 4.0 0.0 13 33
- 31.201547 2 1 ack 40 ------- 0 4.0 0.0 13 33
- 31.432001 3 1 tcp 1040 ------- 0 0.0 4.0 17 32
r 31.565334 3 1 tcp 1040 ------- 0 0.0 4.0 15 30
+ 31.565334 1 2 tcp 1040 ------- 0 0.0 4.0 15 30
- 31.565334 1 2 tcp 1040 ------- 0 0.0 4.0 15 30
r 31.734881 2 1 ack 40 ------- 0 4.0 0.0 13 33
+ 31.734881 1 3 ack 40 ------- 0 4.0 0.0 13 33
- 31.734881 1 3 ack 40 ------- 0 4.0 0.0 13 33
r 32.065334 1 2 tcp 1040 ------- 0 0.0 4.0 14 28
+ 32.065334 2 4 tcp 1040 ------- 0 0.0 4.0 14 28
- 32.065334 2 4 tcp 1040 ------- 0 0.0 4.0 14 28
r 32.068107 2 4 tcp 1040 ------- 0 0.0 4.0 14 28
+ 32.068107 4 2 ack 40 ------- 0 4.0 0.0 14 34
- 32.068107 4 2 ack 40 ------- 0 4.0 0.0 14 34
r 32.068214 4 2 ack 40 ------- 0 4.0 0.0 14 34
+ 32.068214 2 1 ack 40 ------- 0 4.0 0.0 14 34
- 32.068214 2 1 ack 40 ------- 0 4.0 0.0 14 34
r 32.432001 3 1 tcp 1040 ------- 0 0.0 4.0 16 31
+ 32.432001 1 2 tcp 1040 ------- 0 0.0 4.0 16 31
- 32.432001 1 2 tcp 1040 ------- 0 0.0 4.0 16 31
r 32.601547 2 1 ack 40 ------- 0 4.0 0.0 14 34
+ 32.601547 1 3 ack 40 ------- 0 4.0 0.0 14 34
- 32.601547 1 3 ack 40 ------- 0 4.0 0.0 14 34
r 32.768214 1 3 ack 40 ------- 0 4.0 0.0 13 33
+ 32.768214 3 0 ack 40 ------- 0 4.0 0.0 13 33
- 32.768214 3 0 ack 40 ------- 0 4.0 0.0 13 33
r 32.768321 3 0 ack 40 ------- 0 4.0 0.0 13 33
+ 32.768321 0 3 tcp 1040 ------- 0 0.0 4.0 18 35
- 32.768321 0 3 tcp 1040 ------- 0 0.0 4.0 18 35
r 32.771094 0 3 tcp 1040 ------- 0 0.0 4.0 18 35
+ 32.771094 3 1 tcp 1040 ------- 0 0.0 4.0 18 35
- 32.771094 3 1 tcp 1040 ------- 0 0.0 4.0 18 35
r 32.932001 1 2 tcp 1040 ------- 0 0.0 4.0 15 30
+ 32.932001 2 4 tcp 1040 ------- 0 0.0 4.0 15 30
- 32.932001 2 4 tcp 1040 ------- 0 0.0 4.0 15 30
r 32.934774 2 4 tcp 1040 ------- 0 0.0 4.0 15 30
+ 32.934774 4 2 ack 40 ------- 0 4.0 0.0 15 36
- 32.934774 4 2 ack 40 ------- 0 4.0 0.0 15 36
r 32.934881 4 2 ack 40 ------- 0 4.0 0.0 15 36
+ 32.934881 2 1 ack 40 ------- 0 4.0 0.0 15 36
- 32.934881 2 1 ack 40 ------- 0 4.0 0.0 15 36
r 33.298667 3 1 tcp 1040 ------- 0 0.0 4.0 17 32
+ 33.298667 1 2 tcp 1040 ------- 0 0.0 4.0 17 32
- 33.298667 1 2 tcp 1040 ------- 0 0.0 4.0 17 32
r 33.468214 2 1 ack 40 ------- 0 4.0 0.0 15 36
+ 33.468214 1 3 ack 40 ------- 0 4.0 0.0 15 36
- 33.468214 1 3 ack 40 ------- 0 4.0 0.0 15 36
r 33.634881 1 3 ack 40 ------- 0 4.0 0.0 14 34
+ 33.634881 3 0 ack 40 ------- 0 4.0 0.0 14 34
- 33.634881 3 0 ack 40 ------- 0 4.0 0.0 14 34
r 33.634988 3 0 ack 40 ------- 0 4.0 0.0 14 34
+ 33.634988 0 3 tcp 1040 ------- 0 0.0 4.0 19 37
- 33.634988 0 3 tcp 1040 ------- 0 0.0 4.0 19 37
r 33.637761 0 3 tcp 1040 ------- 0 0.0 4.0 19 37
+ 33.637761 3 1 tcp 1040 ------- 0 0.0 4.0 19 37
- 33.637761 3 1 tcp 1040 ------- 0 0.0 4.0 19 37
r 33.798667 1 2 tcp 1040 ------- 0 0.0 4.0 16 31
+ 33.798667 2 4 tcp 1040 ------- 0 0.0 4.0 16 31
- 33.798667 2 4 tcp 1040 ------- 0 0.0 4.0 16 31
r 33.801441 2 4 tcp 1040 ------- 0 0.0 4.0 16 31
+ 33.801441 4 2 ack 40 ------- 0 4.0 0.0 16 38
- 33.801441 4 2 ack 40 ------- 0 4.0 0.0 16 38
r 33.801547 4 2 ack 40 ------- 0 4.0 0.0 16 38
+ 33.801547 2 1 ack 40 ------- 0 4.0 0.0 16 38
- 33.801547 2 1 ack 40 ------- 0 4.0 0.0 16 38
r 34.334881 2 1 ack 40 ------- 0 4.0 0.0 16 38
+ 34.334881 1 3 ack 40 ------- 0 4.0 0.0 16 38
- 34.334881 1 3 ack 40 ------- 0 4.0 0.0 16 38
r 34.501547 1 3 ack 40 ------- 0 4.0 0.0 15 36
+ 34.501547 3 0 ack 40 ------- 0 4.0 0.0 15 36
- 34.501547 3 0 ack 40 ------- 0 4.0 0.0 15 36
r 34.501654 3 0 ack 40 ------- 0 4.0 0.0 15 36
+ 34.501654 0 3 tcp 1040 ------- 0 0.0 4.0 20 39
- 34.501654 0 3 tcp 1040 ------- 0 0.0 4.0 20 39
r 34.504428 0 3 tcp 1040 ------- 0 0.0 4.0 20 39
+ 34.504428 3 1 tcp 1040 ------- 0 0.0 4.0 20 39
- 34.504428 3 1 tcp 1040 ------- 0 0.0 4.0 20 39
r 34.637761 3 1 tcp 1040 ------- 0 0.0 4.0 18 35
+ 34.637761 1 2 tcp 1040 ------- 0 0.0 4.0 18 35
- 34.637761 1 2 tcp 1040 ------- 0 0.0 4.0 18 35
r 34.665334 1 2 tcp 1040 ------- 0 0.0 4.0 17 32
+ 34.665334 2 4 tcp 1040 ------- 0 0.0 4.0 17 32
- 34.665334 2 4 tcp 1040 ------- 0 0.0 4.0 17 32
r 34.668107 2 4 tcp 1040 ------- 0 0.0 4.0 17 32
+ 34.668107 4 2 ack 40 ------- 0 4.0 0.0 17 40
- 34.668107 4 2 ack 40 ------- 0 4.0 0.0 17 40
r 34.668214 4 2 ack 40 ------- 0 4.0 0.0 17 40
+ 34.668214 2 1 ack 40 ------- 0 4.0 0.0 17 40
- 34.668214 2 1 ack 40 ------- 0 4.0 0.0 17 40
r 35.201547 2 1 ack 40 ------- 0 4.0 0.0 17 40
+ 35.201547 1 3 ack 40 ------- 0 4.0 0.0 17 40
- 35.201547 1 3 ack 40 ------- 0 4.0 0.0 17 40
r 35.368214 1 3 ack 40 ------- 0 4.0 0.0 16 38
+ 35.368214 3 0 ack 40 ------- 0 4.0 0.0 16 38
- 35.368214 3 0 ack 40 ------- 0 4.0 0.0 16 38
r 35.368321 3 0 ack 40 ------- 0 4.0 0.0 16 38
+ 35.368321 0 3 tcp 1040 ------- 0 0.0 4.0 21 41
- 35.368321 0 3 tcp 1040 ------- 0 0.0 4.0 21 41
r 35.371094 0 3 tcp 1040 ------- 0 0.0 4.0 21 41
+ 35.371094 3 1 tcp 1040 ------- 0 0.0 4.0 21 41
- 35.371094 3 1 tcp 1040 ------- 0 0.0 4.0 21 41
r 35.504428 3 1 tcp 1040 ------- 0 0.0 4.0 19 37
+ 35.504428 1 2 tcp 1040 ------- 0 0.0 4.0 19 37
- 35.504428 1 2 tcp 1040 ------- 0 0.0 4.0 19 37
r 36.004428 1 2 tcp 1040 ------- 0 0.0 4.0 18 35
+ 36.004428 2 4 tcp 1040 ------- 0 0.0 4.0 18 35
- 36.004428 2 4 tcp 1040 ------- 0 0.0 4.0 18 35
r 36.007201 2 4 tcp 1040 ------- 0 0.0 4.0 18 35
+ 36.007201 4 2 ack 40 ------- 0 4.0 0.0 18 42
- 36.007201 4 2 ack 40 ------- 0 4.0 0.0 18 42
r 36.007308 4 2 ack 40 ------- 0 4.0 0.0 18 42
+ 36.007308 2 1 ack 40 ------- 0 4.0 0.0 18 42
- 36.007308 2 1 ack 40 ------- 0 4.0 0.0 18 42
r 36.234881 1 3 ack 40 ------- 0 4.0 0.0 17 40
+ 36.234881 3 0 ack 40 ------- 0 4.0 0.0 17 40
- 36.234881 3 0 ack 40 ------- 0 4.0 0.0 17 40
r 36.234988 3 0 ack 40 ------- 0 4.0 0.0 17 40
+ 36.234988 0 3 tcp 1040 ------- 0 0.0 4.0 22 43
- 36.234988 0 3 tcp 1040 ------- 0 0.0 4.0 22 43
+ 36.234988 0 3 tcp 1040 ------- 0 0.0 4.0 23 44
- 36.237761 0 3 tcp 1040 ------- 0 0.0 4.0 23 44
r 36.237761 0 3 tcp 1040 ------- 0 0.0 4.0 22 43
+ 36.237761 3 1 tcp 1040 ------- 0 0.0 4.0 22 43
- 36.237761 3 1 tcp 1040 ------- 0 0.0 4.0 22 43
r 36.240534 0 3 tcp 1040 ------- 0 0.0 4.0 23 44
+ 36.240534 3 1 tcp 1040 ------- 0 0.0 4.0 23 44
r 36.371094 3 1 tcp 1040 ------- 0 0.0 4.0 20 39
+ 36.371094 1 2 tcp 1040 ------- 0 0.0 4.0 20 39
- 36.371094 1 2 tcp 1040 ------- 0 0.0 4.0 20 39
r 36.540641 2 1 ack 40 ------- 0 4.0 0.0 18 42
+ 36.540641 1 3 ack 40 ------- 0 4.0 0.0 18 42
- 36.540641 1 3 ack 40 ------- 0 4.0 0.0 18 42
r 36.871094 1 2 tcp 1040 ------- 0 0.0 4.0 19 37
+ 36.871094 2 4 tcp 1040 ------- 0 0.0 4.0 19 37
- 36.871094 2 4 tcp 1040 ------- 0 0.0 4.0 19 37
r 36.873868 2 4 tcp 1040 ------- 0 0.0 4.0 19 37
+ 36.873868 4 2 ack 40 ------- 0 4.0 0.0 19 45
- 36.873868 4 2 ack 40 ------- 0 4.0 0.0 19 45
r 36.873974 4 2 ack 40 ------- 0 4.0 0.0 19 45
+ 36.873974 2 1 ack 40 ------- 0 4.0 0.0 19 45
- 36.873974 2 1 ack 40 ------- 0 4.0 0.0 19 45
- 37.104428 3 1 tcp 1040 ------- 0 0.0 4.0 23 44
r 37.237761 3 1 tcp 1040 ------- 0 0.0 4.0 21 41
+ 37.237761 1 2 tcp 1040 ------- 0 0.0 4.0 21 41
- 37.237761 1 2 tcp 1040 ------- 0 0.0 4.0 21 41
r 37.407308 2 1 ack 40 ------- 0 4.0 0.0 19 45
+ 37.407308 1 3 ack 40 ------- 0 4.0 0.0 19 45
- 37.407308 1 3 ack 40 ------- 0 4.0 0.0 19 45
r 37.573974 1 3 ack 40 ------- 0 4.0 0.0 18 42
+ 37.573974 3 0 ack 40 ------- 0 4.0 0.0 18 42
- 37.573974 3 0 ack 40 ------- 0 4.0 0.0 18 42
r 37.574081 3 0 ack 40 ------- 0 4.0 0.0 18 42
+ 37.574081 0 3 tcp 1040 ------- 0 0.0 4.0 24 46
- 37.574081 0 3 tcp 1040 ------- 0 0.0 4.0 24 46
r 37.576854 0 3 tcp 1040 ------- 0 0.0 4.0 24 46
+ 37.576854 3 1 tcp 1040 ------- 0 0.0 4.0 24 46
r 37.737761 1 2 tcp 1040 ------- 0 0.0 4.0 20 39
+ 37.737761 2 4 tcp 1040 ------- 0 0.0 4.0 20 39
- 37.737761 2 4 tcp 1040 ------- 0 0.0 4.0 20 39
r 37.740534 2 4 tcp 1040 ------- 0 0.0 4.0 20 39
+ 37.740534 4 2 ack 40 ------- 0 4.0 0.0 20 47
- 37.740534 4 2 ack 40 ------- 0 4.0 0.0 20 47
r 37.740641 4 2 ack 40 ------- 0 4.0 0.0 20 47
+ 37.740641 2 1 ack 40 ------- 0 4.0 0.0 20 47
- 37.740641 2 1 ack 40 ------- 0 4.0 0.0 20 47
- 37.971094 3 1 tcp 1040 ------- 0 0.0 4.0 24 46
r 38.104428 3 1 tcp 1040 ------- 0 0.0 4.0 22 43
+ 38.104428 1 2 tcp 1040 ------- 0 0.0 4.0 22 43
- 38.104428 1 2 tcp 1040 ------- 0 0.0 4.0 22 43
r 38.273974 2 1 ack 40 ------- 0 4.0 0.0 20 47
+ 38.273974 1 3 ack 40 ------- 0 4.0 0.0 20 47
- 38.273974 1 3 ack 40 ------- 0 4.0 0.0 20 47
r 38.440641 1 3 ack 40 ------- 0 4.0 0.0 19 45
+ 38.440641 3 0 ack 40 ------- 0 4.0 0.0 19 45
- 38.440641 3 0 ack 40 ------- 0 4.0 0.0 19 45
r 38.440748 3 0 ack 40 ------- 0 4.0 0.0 19 45
+ 38.440748 0 3 tcp 1040 ------- 0 0.0 4.0 25 48
- 38.440748 0 3 tcp 1040 ------- 0 0.0 4.0 25 48
r 38.443521 0 3 tcp 1040 ------- 0 0.0 4.0 25 48
+ 38.443521 3 1 tcp 1040 ------- 0 0.0 4.0 25 48
r 38.604428 1 2 tcp 1040 ------- 0 0.0 4.0 21 41
+ 38.604428 2 4 tcp 1040 ------- 0 0.0 4.0 21 41
- 38.604428 2 4 tcp 1040 ------- 0 0.0 4.0 21 41
r 38.607201 2 4 tcp 1040 ------- 0 0.0 4.0 21 41
+ 38.607201 4 2 ack 40 ------- 0 4.0 0.0 21 49
- 38.607201 4 2 ack 40 ------- 0 4.0 0.0 21 49
r 38.607308 4 2 ack 40 ------- 0 4.0 0.0 21 49
+ 38.607308 2 1 ack 40 ------- 0 4.0 0.0 21 49
- 38.607308 2 1 ack 40 ------- 0 4.0 0.0 21 49
- 38.837761 3 1 tcp 1040 ------- 0 0.0 4.0 25 48
r 38.971094 3 1 tcp 1040 ------- 0 0.0 4.0 23 44
+ 38.971094 1 2 tcp 1040 ------- 0 0.0 4.0 23 44
- 38.971094 1 2 tcp 1040 ------- 0 0.0 4.0 23 44
r 39.140641 2 1 ack 40 ------- 0 4.0 0.0 21 49
+ 39.140641 1 3 ack 40 ------- 0 4.0 0.0 21 49
- 39.140641 1 3 ack 40 ------- 0 4.0 0.0 21 49
r 39.307308 1 3 ack 40 ------- 0 4.0 0.0 20 47
+ 39.307308 3 0 ack 40 ------- 0 4.0 0.0 20 47
- 39.307308 3 0 ack 40 ------- 0 4.0 0.0 20 47
r 39.307414 3 0 ack 40 ------- 0 4.0 0.0 20 47
+ 39.307414 0 3 tcp 1040 ------- 0 0.0 4.0 26 50
- 39.307414 0 3 tcp 1040 ------- 0 0.0 4.0 26 50
r 39.310188 0 3 tcp 1040 ------- 0 0.0 4.0 26 50
+ 39.310188 3 1 tcp 1040 ------- 0 0.0 4.0 26 50
r 39.471094 1 2 tcp 1040 ------- 0 0.0 4.0 22 43
+ 39.471094 2 4 tcp 1040 ------- 0 0.0 4.0 22 43
- 39.471094 2 4 tcp 1040 ------- 0 0.0 4.0 22 43
r 39.473868 2 4 tcp 1040 ------- 0 0.0 4.0 22 43
+ 39.473868 4 2 ack 40 ------- 0 4.0 0.0 22 51
- 39.473868 4 2 ack 40 ------- 0 4.0 0.0 22 51
r 39.473974 4 2 ack 40 ------- 0 4.0 0.0 22 51
+ 39.473974 2 1 ack 40 ------- 0 4.0 0.0 22 51
- 39.473974 2 1 ack 40 ------- 0 4.0 0.0 22 51
- 39.704428 3 1 tcp 1040 ------- 0 0.0 4.0 26 50
r 39.837761 3 1 tcp 1040 ------- 0 0.0 4.0 24 46
+ 39.837761 1 2 tcp 1040 ------- 0 0.0 4.0 24 46
- 39.837761 1 2 tcp 1040 ------- 0 0.0 4.0 24 46
r 40.007308 2 1 ack 40 ------- 0 4.0 0.0 22 51
+ 40.007308 1 3 ack 40 ------- 0 4.0 0.0 22 51
- 40.007308 1 3 ack 40 ------- 0 4.0 0.0 22 51
r 40.173974 1 3 ack 40 ------- 0 4.0 0.0 21 49
+ 40.173974 3 0 ack 40 ------- 0 4.0 0.0 21 49
- 40.173974 3 0 ack 40 ------- 0 4.0 0.0 21 49
r 40.174081 3 0 ack 40 ------- 0 4.0 0.0 21 49
+ 40.174081 0 3 tcp 1040 ------- 0 0.0 4.0 27 52
- 40.174081 0 3 tcp 1040 ------- 0 0.0 4.0 27 52
r 40.176854 0 3 tcp 1040 ------- 0 0.0 4.0 27 52
+ 40.176854 3 1 tcp 1040 ------- 0 0.0 4.0 27 52
r 40.337761 1 2 tcp 1040 ------- 0 0.0 4.0 23 44
+ 40.337761 2 4 tcp 1040 ------- 0 0.0 4.0 23 44
- 40.337761 2 4 tcp 1040 ------- 0 0.0 4.0 23 44
r 40.340534 2 4 tcp 1040 ------- 0 0.0 4.0 23 44
+ 40.340534 4 2 ack 40 ------- 0 4.0 0.0 23 53
- 40.340534 4 2 ack 40 ------- 0 4.0 0.0 23 53
r 40.340641 4 2 ack 40 ------- 0 4.0 0.0 23 53
+ 40.340641 2 1 ack 40 ------- 0 4.0 0.0 23 53
- 40.340641 2 1 ack 40 ------- 0 4.0 0.0 23 53
- 40.571094 3 1 tcp 1040 ------- 0 0.0 4.0 27 52
r 40.704428 3 1 tcp 1040 ------- 0 0.0 4.0 25 48
+ 40.704428 1 2 tcp 1040 ------- 0 0.0 4.0 25 48
- 40.704428 1 2 tcp 1040 ------- 0 0.0 4.0 25 48
r 40.873974 2 1 ack 40 ------- 0 4.0 0.0 23 53
+ 40.873974 1 3 ack 40 ------- 0 4.0 0.0 23 53
- 40.873974 1 3 ack 40 ------- 0 4.0 0.0 23 53
r 41.040641 1 3 ack 40 ------- 0 4.0 0.0 22 51
+ 41.040641 3 0 ack 40 ------- 0 4.0 0.0 22 51
- 41.040641 3 0 ack 40 ------- 0 4.0 0.0 22 51
r 41.040748 3 0 ack 40 ------- 0 4.0 0.0 22 51
+ 41.040748 0 3 tcp 1040 ------- 0 0.0 4.0 28 54
- 41.040748 0 3 tcp 1040 ------- 0 0.0 4.0 28 54